Created on Fri Apr 22 08:54:41 2022 

        1296 atoms
        1521 bonds
        3024 angles
        3528 dihedrals
        2160 impropers

           5 atom types
           8 bond types
          17 angle types
           5 dihedral types
           1 improper types
           0.000000  67.415000 xlo xhi
           0.000000  46.997339 ylo yhi
           0.000000  18.592304 zlo zhi
         -27.750988  -2.490957  -4.344696 xy xz yz

Masses

    1   158.925350000 # Tb8f4
    2    12.010700000 # C_R
    3    14.006700000 # N_R
    4     1.007940000 # H_
    5    15.999400000 # O_R

Bond Coeffs

    1      245.977507        2.246212  # N_R Tb8f4
    2      247.398279        2.167807  # O_R Tb8f4
    3      166.829338        2.324424  # C_R Tb8f4
    4      663.718927        1.345073  # N_R C_R
    5      462.655054        1.379256  # C_R C_R
    6      357.440381        1.081418  # H_ C_R
    7      646.680887        1.311940  # C_R O_R
    8      391.669513        1.458000  # C_R C_R

Angle Coeffs

    1                      fourier      116.125416        0.343737        0.374972        0.281246 # N_R Tb8f4 N_R
    2                      fourier      110.616721        0.343737        0.374972        0.281246 # N_R Tb8f4 O_R
    3                      fourier       82.827006        0.343737        0.374972        0.281246 # N_R Tb8f4 C_R
    4                      fourier      105.594011        0.343737        0.374972        0.281246 # O_R Tb8f4 O_R
    5                      fourier       78.736324        0.343737        0.374972        0.281246 # O_R Tb8f4 C_R
    6              cosine/periodic      153.699352              -1               3 # N_R C_R C_R
    7              cosine/periodic      111.297508              -1               3 # C_R C_R C_R
    8              cosine/periodic      120.000516              -1               3 # C_R N_R C_R
    9              cosine/periodic       80.220223              -1               3 # C_R N_R Tb8f4
   10              cosine/periodic       57.289016              -1               3 # C_R C_R H_
   11              cosine/periodic       79.786967              -1               3 # N_R C_R H_
   12              cosine/periodic      107.587815              -1               3 # Tb8f4 O_R C_R
   13              cosine/periodic      187.136328              -1               3 # O_R C_R O_R
   14              cosine/periodic      131.755710              -1               3 # O_R C_R C_R
   15              cosine/periodic      102.183280              -1               3 # C_R C_R C_R
   16              cosine/periodic       91.215838              -1               3 # Tb8f4 C_R O_R
   17              cosine/periodic       69.603876              -1               3 # Tb8f4 C_R C_R

Dihedral Coeffs

    1        3.368555              -1               2 # C_R N_R C_R C_R
    2        4.491407              -1               2 # O_R C_R O_R Tb8f4
    3        6.737110              -1               2 # O_R C_R O_R Tb8f4
    4        1.250000              -1               2 # C_R C_R C_R O_R
    5        0.833333              -1               2 # Tb8f4 C_R C_R C_R

Improper Coeffs

    1        2.000000        1.000000       -1.000000        0.000000               0 # N_R C_R C_R C_R

Pair Coeffs

    1        0.007000        3.074491 # Tb8f4 Tb8f4
    2        0.105000        3.430851 # C_R C_R
    3        0.069000        3.260689 # N_R N_R
    4        0.044000        2.571134 # H_ H_
    5        0.060000        3.118146 # O_R O_R

Atoms

       1      444        1     0.00000   53.13792   21.80928    2.46497
       2      444        2     0.00000   -7.64847   24.31891    2.79294
       3      444        3     0.00000   -8.23174   23.47135    1.87466
       4      444        2     0.00000   -7.13684   24.66731    0.12550
       5      444        2     0.00000   -6.80676   25.36917    2.35304
       6      444        2     0.00000   -7.95922   23.64288    0.57952
       7      444        2     0.00000   -6.58499   25.55135    0.96606
       8      444        2     0.00000   -7.35393   25.02903    5.11586
       9      444        2     0.00000   -7.92329   24.13951    4.17806
      10      444        2     0.00000   -6.50151   26.07807    4.65905
      11      444        2     0.00000   -6.24471   26.23883    3.36576
      12      444        1     0.00000  -10.00802   21.76520    2.76021
      13      444        3     0.00000   -8.73142   23.10739    4.54433
      14      444        2     0.00000   -7.68537   24.82819    6.47812
      15      444        2     0.00000   -8.99378   22.96385    5.85044
      16      444        2     0.00000   -8.47601   23.81945    6.84085
      17      444        4     0.00000  -10.82366   18.71355   18.55233
      18      444        4     0.00000   -8.68202   23.68156    7.73663
      19      444        4     0.00000   51.46233   20.51670    5.26515
      20      444        4     0.00000   49.32097   15.54822   16.08086
      21      444        4     0.00000   -9.54472   22.26396    6.11631
      22      444        4     0.00000   -7.34840   25.40579    7.12569
      23      444        4     0.00000   50.18336   16.96625   17.70136
      24      444        4     0.00000   -9.45630   20.39600   17.80641
      25      444        4     0.00000   -6.11758   26.65772    5.27575
      26      444        4     0.00000   -5.68667   26.93427    3.10082
      27      444        4     0.00000   50.09564   18.83425    6.01108
      28      444        4     0.00000   -6.07348   26.26023    0.64962
      29      444        4     0.00000   47.98802   13.82400   16.69180
      30      444        3     0.00000   51.36134   20.10356    3.35071
      31      444        2     0.00000   50.77809   19.25604    2.43225
      32      444        2     0.00000   50.26711   18.90760    5.09987
      33      444        2     0.00000   49.93706   18.20578    2.87214
      34      444        2     0.00000   51.08952   19.93207    4.64566
      35      444        2     0.00000   49.71462   18.02360    4.25913
      36      444        3     0.00000   51.86169   20.46752    0.68104
      37      444        2     0.00000   49.63245   16.26641   17.96704
      38      444        2     0.00000   50.48383   18.54545    0.10932
      39      444        2     0.00000   51.05291   19.43544    1.04712
      40      444        2     0.00000   48.32401   14.40202   17.33955
      41      444        2     0.00000   49.11495   15.41033   16.97663
      42      444        4     0.00000   49.20405   17.31425    4.57557
      43      444        4     0.00000   48.81725   16.64021    2.12436
      44      444        4     0.00000   46.75624   12.57253   18.54173
      45      444        5     0.00000   51.94638   23.46469    1.08058
      46      444        5     0.00000   54.16105   19.66326    2.25432
      47      444        5     0.00000  -11.02145   19.74582    2.11822
      48      444        5     0.00000   51.15986   23.06808    3.09357
      49      444        5     0.00000  -12.72360   22.12380    0.78720
      50      444        5     0.00000  -10.53587   22.16438    0.46072
      51      444        5     0.00000   -8.81678   20.11021    4.14478
      52      444        5     0.00000  -11.03078   23.91164    2.97105
      53      444        5     0.00000  -13.26326   23.82913    3.10696
      54      444        5     0.00000   -8.02999   20.50636    2.13179
      55      444        5     0.00000  -11.56110   21.45115    4.43798
      56      444        5     0.00000  -13.74951   21.41057    4.76446
      57      444        2     0.00000   55.29185   19.19759    1.93825
      58      444        2     0.00000   49.98263   24.63786    1.74582
      59      444        2     0.00000   48.84952   26.23487    0.33782
      60      444        2     0.00000   47.84067   26.33477    1.30202
      61      444        2     0.00000   48.96885   24.76129    2.70183
      62      444        2     0.00000   47.89804   25.62412    2.48282
      63      444        2     0.00000   49.92131   25.38633    0.58417
      64      444        2     0.00000  -11.70100   22.44191    0.11174
      65      444        2     0.00000   51.08988   23.66151    1.98808
      66      444        2     0.00000   49.37528   17.33565    1.85942
      67      444        2     0.00000   49.63113   17.49688    0.56614
      68      444        2     0.00000  -12.16223   24.37736    3.28693
      69      444        2     0.00000   -6.85303   18.93705    3.47955
      70      444        2     0.00000   -5.71990   17.34008    4.88736
      71      444        2     0.00000   -4.71080   17.23966    3.92335
      72      444        2     0.00000   -5.83895   18.81319    2.52335
      73      444        2     0.00000   -6.79169   18.18862    4.64101
      74      444        2     0.00000   -4.76842   17.95083    2.74236
      75      444        2     0.00000  -12.58412   21.13253    5.11363
      76      444        2     0.00000   -7.95959   19.91344    3.23711
      77      444        4     0.00000   47.11494   26.89337    1.14398
      78      444        4     0.00000   49.00939   24.26409    3.48606
      79      444        4     0.00000   47.23135   25.71836    3.12332
      80      444        4     0.00000   48.11735   20.97669   18.55140
      81      444        4     0.00000   -3.98534   16.68153    4.08138
      82      444        4     0.00000   -5.87909   19.31086    1.73912
      83      444        4     0.00000   -7.47801   18.25357    5.26608
      84      444        4     0.00000   -4.10148   17.85608    2.10205
      85      444        1     0.00000   23.92861   23.13676    1.07408
      86      444        2     0.00000   30.15383   19.82310    1.85793
      87      444        3     0.00000   29.55274   20.78108    2.64754
      88      444        2     0.00000   30.20951   19.55074    4.58207
      89      444        2     0.00000   30.77748   18.70160    2.45586
      90      444        2     0.00000   29.60380   20.64314    3.97392
      91      444        2     0.00000   30.76365   18.56440    3.86553
      92      444        2     0.00000   28.20841   14.62050   18.22473
      93      444        2     0.00000   30.11521   19.96412    0.44194
      94      444        2     0.00000   31.33236   17.84461    0.24858
      95      444        2     0.00000   31.36832   17.71946    1.57049
      96      444        1     0.00000   28.16333   22.64382    1.44388
      97      444        3     0.00000   27.01905   16.72255   18.51496
      98      444        2     0.00000   28.11382   14.79087   16.82194
      99      444        2     0.00000   26.97655   16.83053   17.18003
     100      444        2     0.00000   27.52295   15.86892   16.30936
     101      444        4     0.00000   29.21927   21.30005    4.50938
     102      444        4     0.00000   27.47269   15.98542   15.38848
     103      444        4     0.00000   20.38172   20.13583   16.60088
     104      444        4     0.00000   22.12829   25.45046    5.72178
     105      444        4     0.00000   26.56622   17.57824   16.81005
     106      444        4     0.00000   28.46681   14.14464   16.25283
     107      444        4     0.00000   23.03476   23.85765    4.30021
     108      444        4     0.00000   30.23190   19.50287    5.51094
     109      444        4     0.00000   29.23512   12.84717   18.30970
     110      444        4     0.00000   31.78681   16.97504    1.94048
     111      444        4     0.00000   19.36906   21.93297   15.59950
     112      444        4     0.00000   31.12600   17.81485    4.27958
     113      444        4     0.00000   21.13417   27.29125    4.85743
     114      444        3     0.00000   20.04825   20.65480   18.46272
     115      444        2     0.00000   21.93878   25.95749    0.66003
     116      444        2     0.00000   19.39147   21.88514   16.52819
     117      444        2     0.00000   21.31446   27.07898    0.06210
     118      444        2     0.00000   19.99786   20.79274   17.13634
     119      444        2     0.00000   18.83731   22.87144   17.24492
     120      444        3     0.00000   22.58191   24.71330    2.59549
     121      444        2     0.00000   22.62444   24.60536    3.93023
     122      444        2     0.00000   21.39254   26.81534    2.88571
     123      444        2     0.00000   21.97673   25.81646    2.07602
     124      444        2     0.00000   21.48714   26.64498    4.28850
     125      444        2     0.00000   22.07801   25.56692    4.80109
     126      444        4     0.00000   18.47496   23.62099   16.83087
     127      444        4     0.00000   20.30608   28.80508    0.57748
     128      444        4     0.00000   20.36587   28.58871    2.80056
     129      444        5     0.00000   22.34064   21.71150    2.30823
     130      444        5     0.00000   25.17516   25.14969    1.37360
     131      444        5     0.00000   27.33264   24.80217    1.85719
     132      444        5     0.00000   21.92216   22.09837    0.18611
     133      444        5     0.00000   25.15891   22.72061    2.98165
     134      444        5     0.00000   27.24981   22.42929    3.64502
     135      444        5     0.00000   29.75127   24.06904    0.20991
     136      444        5     0.00000   26.91678   20.63089    1.14436
     137      444        5     0.00000   24.75927   20.97837    0.66096
     138      444        5     0.00000   30.16975   23.68217    2.33203
     139      444        5     0.00000   24.44208   18.71528   18.12861
     140      444        5     0.00000   22.35143   19.00608   17.46542
     141      444        2     0.00000   26.29670   25.48940    1.84659
     142      444        2     0.00000   20.36463   20.75506    1.38327
     143      444        2     0.00000   18.83701   19.38146    2.64773
     144      444        2     0.00000   17.97984   19.35687    1.54223
     145      444        2     0.00000   19.49797   20.70746    0.28576
     146      444        2     0.00000   18.30478   19.99480    0.36292
     147      444        2     0.00000   20.03382   20.07960    2.54417
     148      444        2     0.00000   26.01962   22.31429    3.81737
     149      444        2     0.00000   21.61110   21.57555    1.28510
     150      444        2     0.00000   20.72360   28.06108    0.94765
     151      444        2     0.00000   20.76025   27.93597    2.26938
     152      444        2     0.00000   25.79524   20.29119    0.67137
     153      444        2     0.00000   31.72799   25.02552    1.13469
     154      444        2     0.00000   30.76394   22.05438   18.46272
     155      444        2     0.00000   34.11210   26.42371    0.97572
     156      444        2     0.00000   32.59422   25.07261    2.23238
     157      444        2     0.00000   29.56716   21.35629   18.56609
     158      444        2     0.00000   33.78716   25.78578    2.15503
     159      444        2     0.00000   23.58204   19.12159   17.29289
     160      444        2     0.00000   30.48084   24.20504    1.23286
     161      444        4     0.00000   17.17332   18.89991    1.60321
     162      444        4     0.00000   17.22825   16.81142   18.09440
     163      444        4     0.00000   15.24417   15.60519   18.22232
     164      444        4     0.00000   20.62134   20.09141    3.26592
     165      444        4     0.00000   34.91859   26.88063    0.91493
     166      444        4     0.00000   32.37341   24.62446    3.01586
     167      444        4     0.00000   28.97965   21.34448   17.84434
     168      444        4     0.00000   34.35681   25.83070    2.88794
     169      444        1     0.00000   37.71437    5.44467    0.69777
     170      444        2     0.00000    6.51380   41.36945   17.24957
     171      444        3     0.00000    6.04016   42.54076   16.69589
     172      444        2     0.00000    6.55414   41.68494   14.52989
     173      444        2     0.00000    7.03088   40.34964   16.41477
     174      444        2     0.00000    6.05021   42.67294   15.36803
     175      444        2     0.00000    7.07341   40.54978   15.01329
     176      444        2     0.00000    9.50680   44.37265    0.64106
     177      444        2     0.00000    8.98960   45.55740    0.07214
     178      444        2     0.00000    7.52642   39.00507   18.37961
     179      444        2     0.00000    7.53478   39.15460   17.05993
     180      444        1     0.00000   33.14845   -2.51780   18.33238
     181      444        3     0.00000    8.47202   46.56680    0.82475
     182      444        2     0.00000    9.49929   44.28022    2.05426
     183      444        2     0.00000    8.48142   46.40953    2.15541
     184      444        2     0.00000    8.99404   45.26519    2.79480
     185      444        4     0.00000    5.68811   43.48951   14.99097
     186      444        4     0.00000    8.97905   45.19716    3.72144
     187      444        4     0.00000   37.40150    6.47225    4.03936
     188      444        4     0.00000   34.13307    4.72658   15.30872
     189      444        4     0.00000   35.88280    0.09349    2.68306
     190      444        4     0.00000    9.85168   43.52515    2.46980
     191      444        4     0.00000   34.98002    2.83338   16.34710
     192      444        4     0.00000    6.52896   41.81596   13.60919
     193      444        4     0.00000   10.34829   42.56530    0.15971
     194      444        4     0.00000    7.87697   38.47015   16.53172
     195      444        4     0.00000   36.58285    8.10820    5.42114
     196      444        4     0.00000    7.45037   39.91491   14.44789
     197      444        4     0.00000   33.26044    6.39858   16.56035
     198      444        3     0.00000   37.07168    7.38344    2.33426
     199      444        2     0.00000   36.59831    8.55429    1.78058
     200      444        2     0.00000   36.55795    8.23876    4.50045
     201      444        2     0.00000   36.08096    9.57456    2.61538
     202      444        2     0.00000   37.06163    7.25127    3.66213
     203      444        2     0.00000   36.03843    9.37442    4.01687
     204      444        3     0.00000   34.63979    3.35736   18.20558
     205      444        2     0.00000   34.63069    3.51420   16.87475
     206      444        2     0.00000   33.60501    5.55151   18.38928
     207      444        2     0.00000   36.61345    8.71099    0.36590
     208      444        2     0.00000   33.61253    5.64394   16.97608
     209      444        2     0.00000   34.11805    4.65851   16.23554
     210      444        4     0.00000   35.66214   10.00930    4.58226
     211      444        4     0.00000   35.23484   11.45401    2.49862
     212      444        4     0.00000   35.25478   11.70314    0.27814
     213      444        5     0.00000   37.23554    1.81122   18.05647
     214      444        5     0.00000   35.33925    5.62824    0.55981
     215      444        5     0.00000   31.85313   -0.55837   18.36009
     216      444        5     0.00000   39.77043    6.30976    1.65564
     217      444        5     0.00000   34.74456    0.23511   17.20495
     218      444        5     0.00000   33.73232   -1.48727   16.25339
     219      444        5     0.00000   33.62729    1.11565    0.97368
     220      444        5     0.00000   35.52357   -2.70137   18.47034
     221      444        5     0.00000   39.00967    3.48520    0.67025
     222      444        5     0.00000   31.09267   -3.38336   17.37451
     223      444        5     0.00000   36.11824    2.69171    1.82539
     224      444        5     0.00000   37.13051    4.41414    2.77676
     225      444        2     0.00000   34.38810    5.00713    0.00186
     226      444        2     0.00000   41.70050    7.03544    0.46685
     227      444        2     0.00000   41.14301    3.38766   17.79637
     228      444        2     0.00000   44.21103    8.20029    0.38932
     229      444        2     0.00000   42.30137    7.49957    1.64226
     230      444        2     0.00000   43.56881    8.07445    1.60359
     231      444        2     0.00000   39.88727    2.79620   17.85772
     232      444        2     0.00000   34.53034   -0.52865   16.21770
     233      444        2     0.00000   40.31593    6.47368    0.53583
     234      444        2     0.00000   35.57731   10.76909    1.97041
     235      444        2     0.00000   35.58542   10.91914    0.65054
     236      444        2     0.00000   38.96683    2.26643    0.42744
     237      444        2     0.00000   29.16233   -4.10857   18.56330
     238      444        2     0.00000    1.96908   46.53603    1.23397
     239      444        2     0.00000    1.39174   46.06857    0.04871
     240      444        2     0.00000    0.81045   42.42460   17.38808
     241      444        2     0.00000   30.97555    0.13067    1.17243
     242      444        2     0.00000   -0.45700   41.84971   17.42675
     243      444        2     0.00000   36.33246    3.45547    2.81264
     244      444        2     0.00000   30.54689   -3.54681   18.49432
     245      444        4     0.00000   45.04717    8.60463    0.35846
     246      444        4     0.00000   41.85184    7.42546    2.45214
     247      444        4     0.00000   43.97534    8.36976    2.38521
     248      444        4     0.00000   39.49683    2.46614   17.08001
     249      444        4     0.00000    0.55590   45.66380    0.07939
     250      444        4     0.00000    1.26028   42.49828   16.57801
     251      444        4     0.00000   31.36597    0.46069    1.95033
     252      444        4     0.00000   -0.86323   41.55397   16.64495
     253      444        1     0.00000   23.77020   39.36173    3.81495
     254      444        2     0.00000   30.39911   41.87093    4.14274
     255      444        3     0.00000   29.81584   41.02337    3.22446
     256      444        2     0.00000   30.91007   42.21933    1.47530
     257      444        2     0.00000   31.24082   42.92119    3.70284
     258      444        2     0.00000   30.08836   41.19490    1.92932
     259      444        2     0.00000   31.46256   43.10333    2.31604
     260      444        2     0.00000   30.69365   42.58105    6.46566
     261      444        2     0.00000   30.12430   41.69153    5.52786
     262      444        2     0.00000   31.54605   43.63005    6.00903
     263      444        2     0.00000   31.80220   43.79085    4.71557
     264      444        1     0.00000   28.03929   39.31769    4.11001
     265      444        3     0.00000   29.31617   40.65941    5.89413
     266      444        2     0.00000   30.36221   42.38021    7.82792
     267      444        2     0.00000   29.05380   40.51587    7.20024
     268      444        2     0.00000   29.57157   41.37148    8.19065
     269      444        4     0.00000   29.71488   40.61027    1.30983
     270      444        4     0.00000   29.36556   41.23359    9.08643
     271      444        4     0.00000   22.09491   38.06873    6.61496
     272      444        4     0.00000   19.95327   33.10072   17.43066
     273      444        4     0.00000   28.50286   39.81599    7.46611
     274      444        4     0.00000   30.69851   42.95781    8.47549
     275      444        4     0.00000   23.30690   38.86297    0.45886
     276      444        4     0.00000   31.08224   42.29272    0.56390
     277      444        4     0.00000   31.92998   44.20970    6.62574
     278      444        4     0.00000   32.36024   44.48629    4.45063
     279      444        4     0.00000   20.72823   36.38627    7.36088
     280      444        4     0.00000   31.97380   43.81268    1.99960
     281      444        4     0.00000   18.62032   31.37649   18.04160
     282      444        3     0.00000   21.99392   37.65558    4.70051
     283      444        2     0.00000   21.41068   36.80807    3.78205
     284      444        2     0.00000   20.89969   36.45963    6.44967
     285      444        2     0.00000   20.56897   35.75781    4.22194
     286      444        2     0.00000   21.72143   37.48409    5.99546
     287      444        2     0.00000   20.34720   35.57562    5.60893
     288      444        3     0.00000   22.49360   38.01954    2.03084
     289      444        2     0.00000   22.75599   38.16313    0.72454
     290      444        2     0.00000   21.11613   36.09795    1.45912
     291      444        2     0.00000   21.68549   36.98747    2.39692
     292      444        2     0.00000   21.44757   36.29879    0.09687
     293      444        2     0.00000   19.74726   32.96282   18.32643
     294      444        4     0.00000   19.83596   34.86627    5.92537
     295      444        4     0.00000   19.44955   34.19271    3.47416
     296      444        4     0.00000   19.87978   34.46925    1.29923
     297      444        5     0.00000   22.57896   41.01672    2.43039
     298      444        5     0.00000   24.79296   37.21529    3.60412
     299      444        5     0.00000   27.02614   37.29785    3.46802
     300      444        5     0.00000   21.79217   40.62057    4.44337
     301      444        5     0.00000   25.32331   39.67583    2.13700
     302      444        5     0.00000   27.51171   39.71640    1.81052
     303      444        5     0.00000   29.23083   37.66228    5.49440
     304      444        5     0.00000   27.01681   41.46367    4.32085
     305      444        5     0.00000   24.78363   41.38111    4.45695
     306      444        5     0.00000   30.01762   38.05843    3.48141
     307      444        5     0.00000   26.48648   39.00317    5.78778
     308      444        5     0.00000   24.29807   38.96260    6.11427
     309      444        2     0.00000   25.92444   36.74962    3.28805
     310      444        2     0.00000   20.61521   42.18988    3.09562
     311      444        2     0.00000   19.48180   43.78732    1.68781
     312      444        2     0.00000   18.47295   43.88722    2.65201
     313      444        2     0.00000   19.60113   42.31374    4.05182
     314      444        2     0.00000   18.53060   43.17610    3.83280
     315      444        2     0.00000   20.55387   42.93831    1.93416
     316      444        2     0.00000   26.34630   39.99440    1.46154
     317      444        2     0.00000   21.72244   41.21349    3.33806
     318      444        2     0.00000   20.00759   34.88814    3.20922
     319      444        2     0.00000   20.26371   35.04890    1.91594
     320      444        2     0.00000   25.88533   41.92934    4.63692
     321      444        2     0.00000   31.19457   36.48912    4.82917
     322      444        2     0.00000   32.32799   34.89168    6.23697
     323      444        2     0.00000   33.33681   34.79173    5.27296
     324      444        2     0.00000   32.20866   36.36526    3.87296
     325      444        2     0.00000   31.25589   35.74064    5.99081
     326      444        2     0.00000   33.27916   35.50286    4.09217
     327      444        2     0.00000   25.46346   38.68455    6.46343
     328      444        2     0.00000   30.08732   37.46547    4.58691
     329      444        4     0.00000   17.74749   44.44535    2.49397
     330      444        4     0.00000   19.64167   41.81654    4.83604
     331      444        4     0.00000   17.86363   43.27081    4.47331
     332      444        4     0.00000   21.24086   42.87337    1.30908
     333      444        4     0.00000   34.06227   34.23360    5.43100
     334      444        4     0.00000   32.16782   36.86288    3.08893
     335      444        4     0.00000   30.56890   35.80559    6.61589
     336      444        4     0.00000   33.94613   35.40815    3.45166
     337      444        1     0.00000  -14.40117   38.48234    5.13055
     338      444        2     0.00000   -8.17623   35.16915    5.91440
     339      444        3     0.00000   -8.77707   36.12662    6.70420
     340      444        2     0.00000   -8.12027   34.89632    8.63854
     341      444        2     0.00000   -7.55257   34.04765    6.51233
     342      444        2     0.00000   -8.72629   35.98915    8.03057
     343      444        2     0.00000   -7.56613   33.90998    7.92199
     344      444        2     0.00000   -7.63001   34.31125    3.68890
     345      444        2     0.00000   -8.21487   35.31013    4.49859
     346      444        2     0.00000   -6.99770   33.19066    4.30505
     347      444        2     0.00000   -6.96146   33.06504    5.62696
     348      444        1     0.00000  -10.16672   37.98987    5.50035
     349      444        3     0.00000   -8.82005   36.41329    3.97912
     350      444        2     0.00000   -7.72528   34.48161    2.28611
     351      444        2     0.00000   -8.86255   36.52127    2.64420
     352      444        2     0.00000   -8.31615   35.55967    1.77352
     353      444        4     0.00000   -9.11051   36.64563    8.56585
     354      444        4     0.00000   -8.36643   35.67613    0.85283
     355      444        4     0.00000  -15.45741   39.82654    2.06523
     356      444        4     0.00000  -16.20149   40.79605    9.77825
     357      444        4     0.00000   -9.27290   37.26894    2.27440
     358      444        4     0.00000   -7.37229   33.83539    1.71700
     359      444        4     0.00000  -15.29502   39.20323    8.35668
     360      444        4     0.00000   -8.09816   34.84892    9.56741
     361      444        4     0.00000   -6.60398   32.53792    3.77387
     362      444        4     0.00000   -6.54325   32.32109    5.99695
     363      444        4     0.00000  -16.46976   41.62325    1.06367
     364      444        4     0.00000   -7.20406   33.16090    8.33605
     365      444        4     0.00000  -17.19591   42.63725    8.91408
     366      444        3     0.00000  -15.79085   40.34555    3.92688
     367      444        2     0.00000  -16.39127   41.30354    4.71650