Created on Tue Apr 19 23:43:29 2022 

        2496 atoms
        2784 bonds
        5120 angles
        5952 dihedrals
        2784 impropers

           6 atom types
           8 bond types
          13 angle types
           4 dihedral types
           1 improper types
           0.000000  94.399000 xlo xhi
           0.000000  26.212000 ylo yhi
           0.000000  60.980998 zlo zhi
           0.000000  -0.014900   0.000000 xy xz yz

Masses

    1    58.933195000 # Co6+3
    2    15.999400000 # O_2
    3    12.010700000 # C_R
    4    58.933195000 # Co1f1
    5    12.010700000 # C_3
    6     1.007940000 # H_

Bond Coeffs

    1      237.617070        1.984073  # O_2 Co6+3
    2      714.557442        1.269010  # C_R O_2
    3      391.669513        1.458000  # C_R C_R
    4      223.286948        2.025641  # O_2 Co1f1
    5      462.655054        1.379256  # C_R C_R
    6      357.440381        1.081418  # H_ C_R
    7      369.943935        1.486000  # C_3 C_R
    8      331.069389        1.109401  # H_ C_3

Angle Coeffs

    1              cosine/periodic      119.273912               1               4 # O_2 Co6+3 O_2
    2              cosine/periodic       81.001252              -1               3 # Co6+3 O_2 C_R
    3              cosine/periodic      206.778426              -1               3 # O_2 C_R O_2
    4              cosine/periodic      137.714246              -1               3 # O_2 C_R C_R
    5              cosine/periodic       26.417694               1               1 # O_2 Co1f1 O_2
    6              cosine/periodic       77.527544              -1               3 # Co1f1 O_2 C_R
    7              cosine/periodic       58.525666              -1               3 # Co6+3 O_2 Co1f1
    8              cosine/periodic      111.297508              -1               3 # C_R C_R C_R
    9              cosine/periodic       57.289016              -1               3 # C_R C_R H_
   10              cosine/periodic      102.183280              -1               3 # C_R C_R C_R
   11              cosine/periodic       99.137149              -1               3 # C_R C_R C_3
   12                      fourier      121.777217        0.343737        0.374972        0.281246 # C_R C_3 H_
   13                      fourier       75.498766        0.343737        0.374972        0.281246 # H_ C_3 H_

Dihedral Coeffs

    1        6.737110              -1               2 # O_2 C_R O_2 Co6+3
    2        3.368555              -1               2 # Co6+3 O_2 C_R O_2
    3        1.250000              -1               2 # C_R C_R C_R O_2
    4        0.833333              -1               2 # H_ C_3 C_R C_R

Improper Coeffs

    1        2.000000        1.000000       -1.000000        0.000000               0 # O_2 C_R O_2 C_R

Pair Coeffs

    1        0.014000        2.558661 # Co6+3 Co6+3
    2        0.060000        3.118146 # O_2 O_2
    3        0.105000        3.430851 # C_R C_R
    4        0.014000        2.558661 # Co1f1 Co1f1
    5        0.105000        3.430851 # C_3 C_3
    6        0.044000        2.571134 # H_ H_

Atoms

       1      444        1     0.00000    4.21639   10.36894    5.55476
       2      444        2     0.00000    2.13790   10.61507    4.82604
       3      444        2     0.00000    3.91197   10.84469    3.54117
       4      444        3     0.00000    3.67333    8.16242    6.64876
       5      444        2     0.00000    6.21670   10.25230    5.59074
       6      444        4     0.00000    4.83009   10.12648    8.97579
       7      444        2     0.00000    6.50974   10.31337    7.79581
       8      444        3     0.00000    3.85437   12.59356    7.47200
       9      444        3     0.00000    2.66303   10.84784    3.71923
      10      444        3     0.00000    6.92349   10.29791    6.63229
      11      444        2     0.00000    4.10481   12.23838    6.31336
      12      444        2     0.00000    3.87773   11.87718    8.48551
      13      444        2     0.00000    3.90679    8.25783    5.42731
      14      444        2     0.00000    3.73922    9.18573    7.40065
      15      444        1     0.00000   19.38065   22.39475    5.55415
      16      444        2     0.00000   21.45855   22.14888    4.82604
      17      444        2     0.00000   19.68510   21.91926    3.54117
      18      444        3     0.00000   19.92317   24.60127    6.64876
      19      444        2     0.00000   17.37938   22.51139    5.59013
      20      444        4     0.00000   18.76622   22.63695    8.97579
      21      444        2     0.00000   17.08620   22.45005    7.79520
      22      444        3     0.00000   19.74173   20.17013    7.47200
      23      444        3     0.00000   20.93396   21.91612    3.71923
      24      444        3     0.00000   16.67302   22.46578    6.63168
      25      444        2     0.00000   19.49185   20.52531    6.31336
      26      444        2     0.00000   19.71788   20.88651    8.48551
      27      444        2     0.00000   19.68936   24.50612    5.42731
      28      444        2     0.00000   19.85691   23.57796    7.40065
      29      444        1     0.00000    4.21632   22.39501    9.69171
      30      444        2     0.00000    2.13748   22.14888   10.41982
      31      444        2     0.00000    3.91092   21.91926   11.70469
      32      444        3     0.00000    3.67285   24.60127    8.59710
      33      444        2     0.00000    6.21665   22.51165    9.65573
      34      444        4     0.00000    4.83075   22.63695    6.27007
      35      444        2     0.00000    6.50982   22.45032    7.45066
      36      444        3     0.00000    3.85430   20.17013    7.77386
      37      444        3     0.00000    2.66207   21.91638   11.52663
      38      444        3     0.00000    6.92301   22.46578    8.61418
      39      444        2     0.00000    4.10512   20.52531    8.93250
      40      444        2     0.00000    3.87815   20.88651    6.76035
      41      444        2     0.00000    3.90666   24.50612    9.81794
      42      444        2     0.00000    3.73912   23.57796    7.84521
      43      444        1     0.00000   19.38058   10.36894    9.69049
      44      444        2     0.00000   21.45812   10.61507   10.41921
      45      444        2     0.00000   19.68500   10.84495   11.70347
      46      444        3     0.00000   19.92364    8.16242    8.59588
      47      444        2     0.00000   17.37933   10.25230    9.65390
      48      444        4     0.00000   18.76688   10.12674    6.26885
      49      444        2     0.00000   17.08629   10.31364    7.44883
      50      444        3     0.00000   19.74165   12.59356    7.77264
      51      444        3     0.00000   20.93299   10.84784   11.52541
      52      444        3     0.00000   16.67348   10.29791    8.61235
      53      444        2     0.00000   19.49121   12.23864    8.93128
      54      444        2     0.00000   19.71830   11.87718    6.75913
      55      444        2     0.00000   19.68923    8.25783    9.81733
      56      444        2     0.00000   19.85680    9.18573    7.84399
      57      444        1     0.00000   90.16771   15.84306   55.42624
      58      444        2     0.00000   92.24620   15.59693   56.15496
      59      444        2     0.00000   90.47213   15.36731   57.43983
      60      444        3     0.00000   90.71077   18.04958   54.33224
      61      444        2     0.00000   88.16646   15.95970   55.39026
      62      444        4     0.00000   89.55401   16.08552   52.00521
      63      444        2     0.00000   87.87436   15.89863   53.18519
      64      444        3     0.00000   90.52973   13.61844   53.50900
      65      444        3     0.00000   91.72107   15.36416   57.26177
      66      444        3     0.00000   87.46061   15.91409   54.34870
      67      444        2     0.00000   90.27929   13.97362   54.66764
      68      444        2     0.00000   90.50543   14.33482   52.49549
      69      444        2     0.00000   90.47636   17.95417   55.55369
      70      444        2     0.00000   90.64488   17.02627   53.58034
      71      444        1     0.00000   75.00345    3.81725   55.42685
      72      444        2     0.00000   72.92461    4.06312   56.15496
      73      444        2     0.00000   74.69900    4.29274   57.43983
      74      444        3     0.00000   74.46093    1.61073   54.33224
      75      444        2     0.00000   77.00378    3.70061   55.39087
      76      444        4     0.00000   75.61788    3.57505   52.00581
      77      444        2     0.00000   77.29790    3.76195   53.18580
      78      444        3     0.00000   74.64237    6.04187   53.50900
      79      444        3     0.00000   73.45014    4.29588   57.26177
      80      444        3     0.00000   77.71014    3.74622   54.34931
      81      444        2     0.00000   74.89225    5.68669   54.66825
      82      444        2     0.00000   74.66528    5.32549   52.49549
      83      444        2     0.00000   74.69474    1.70588   55.55369
      84      444        2     0.00000   74.52719    2.63404   53.58034
      85      444        1     0.00000   90.16872    3.81699   51.28929
      86      444        2     0.00000   92.24662    4.06312   50.56118
      87      444        2     0.00000   90.47318    4.29274   49.27631
      88      444        3     0.00000   90.71125    1.61073   52.38390
      89      444        2     0.00000   88.16745    3.70061   51.32527
      90      444        4     0.00000   89.55429    3.57505   54.71093
      91      444        2     0.00000   87.87428    3.76168   53.53034
      92      444        3     0.00000   90.52980    6.04187   53.20714
      93      444        3     0.00000   91.72203    4.29562   49.45437
      94      444        3     0.00000   87.46109    3.74622   52.36682
      95      444        2     0.00000   90.27993    5.68669   52.04850
      96      444        2     0.00000   90.50595    5.32549   54.22064
      97      444        2     0.00000   90.47744    1.70588   51.16245
      98      444        2     0.00000   90.64498    2.63404   53.13579
      99      444        1     0.00000   75.00446   15.84306   51.29051
     100      444        2     0.00000   72.92598   15.59693   50.56178
     101      444        2     0.00000   74.70005   15.36705   49.27753
     102      444        3     0.00000   74.46140   18.04958   52.38512
     103      444        2     0.00000   77.00477   15.95970   51.32710
     104      444        4     0.00000   75.61817   16.08526   54.71215
     105      444        2     0.00000   77.29781   15.89836   53.53217
     106      444        3     0.00000   74.64245   13.61844   53.20836
     107      444        3     0.00000   73.45111   15.36416   49.45559
     108      444        3     0.00000   77.71062   15.91409   52.36865
     109      444        2     0.00000   74.89289   13.97336   52.04972
     110      444        2     0.00000   74.66580   14.33482   54.22186
     111      444        2     0.00000   74.69487   17.95417   51.16367
     112      444        2     0.00000   74.52730   17.02627   53.13701
     113      444        1     0.00000    4.20894   23.47494   36.04526
     114      444        2     0.00000    2.13045   23.72107   35.31654
     115      444        2     0.00000    3.90452   23.95069   34.03167
     116      444        3     0.00000    3.66588   21.26842   37.13926
     117      444        2     0.00000    6.20925   23.35830   36.08124
     118      444        4     0.00000    4.82264   23.23248   39.46629
     119      444        2     0.00000    6.50229   23.41937   38.28631
     120      444        3     0.00000    3.84692   25.69956   37.96250
     121      444        3     0.00000    2.65558   23.95384   34.20973
     122      444        3     0.00000    6.91604   23.40391   37.12279
     123      444        2     0.00000    4.09736   25.34438   36.80386
     124      444        2     0.00000    3.87122   24.98318   38.97600
     125      444        2     0.00000    3.90029   21.36383   35.91781
     126      444        2     0.00000    3.73177   22.29173   37.89115
     127      444        1     0.00000   19.37320    9.28875   36.04465
     128      444        2     0.00000   21.45110    9.04288   35.31654
     129      444        2     0.00000   19.67765    8.81326   34.03167
     130      444        3     0.00000   19.91572   11.49527   37.13926
     131      444        2     0.00000   17.37193    9.40539   36.08063
     132      444        4     0.00000   18.75877    9.53095   39.46568
     133      444        2     0.00000   17.07875    9.34405   38.28570
     134      444        3     0.00000   19.73427    7.06413   37.96250
     135      444        3     0.00000   20.92651    8.81012   34.20973
     136      444        3     0.00000   16.66557    9.35978   37.12218
     137      444        2     0.00000   19.48440    7.41931   36.80386
     138      444        2     0.00000   19.71043    7.78051   38.97600
     139      444        2     0.00000   19.68191   11.40012   35.91781
     140      444        2     0.00000   19.84946   10.47196   37.89115
     141      444        1     0.00000    4.20887    9.28901   40.18221
     142      444        2     0.00000    2.13003    9.04288   40.91032
     143      444        2     0.00000    3.90347    8.81326   42.19519
     144      444        3     0.00000    3.66540   11.49527   39.08760
     145      444        2     0.00000    6.20920    9.40539   40.14623
     146      444        4     0.00000    4.82330    9.53095   36.76057
     147      444        2     0.00000    6.50237    9.34432   37.94116
     148      444        3     0.00000    3.84685    7.06413   38.26436
     149      444        3     0.00000    2.65462    8.81038   42.01713
     150      444        3     0.00000    6.91556    9.35978   39.10467
     151      444        2     0.00000    4.09672    7.41931   39.42300
     152      444        2     0.00000    3.87070    7.78051   37.25085
     153      444        2     0.00000    3.89921   11.40012   40.30844
     154      444        2     0.00000    3.73167   10.47196   38.33570
     155      444        1     0.00000   19.37313   23.47494   40.18099
     156      444        2     0.00000   21.45067   23.72107   40.90971
     157      444        2     0.00000   19.67755   23.95095   42.19397
     158      444        3     0.00000   19.91619   21.26842   39.08638
     159      444        2     0.00000   17.37188   23.35830   40.14440
     160      444        4     0.00000   18.75848   23.23274   36.75935
     161      444        2     0.00000   17.07884   23.41964   37.93933
     162      444        3     0.00000   19.73420   25.69956   38.26314
     163      444        3     0.00000   20.92554   23.95384   42.01591
     164      444        3     0.00000   16.66603   23.40391   39.10285
     165      444        2     0.00000   19.48376   25.34464   39.42178
     166      444        2     0.00000   19.71085   24.98318   37.24963
     167      444        2     0.00000   19.68178   21.36383   40.30783
     168      444        2     0.00000   19.84935   22.29173   38.33448
     169      444        1     0.00000   90.17516    2.73706   24.93574
     170      444        2     0.00000   92.25365    2.49093   25.66446
     171      444        2     0.00000   90.47958    2.26131   26.94933
     172      444        3     0.00000   90.71822    4.94358   23.84174
     173      444        2     0.00000   88.17391    2.85370   24.89976
     174      444        4     0.00000   89.56146    2.97952   21.51471
     175      444        2     0.00000   87.88181    2.79263   22.69469
     176      444        3     0.00000   90.53718    0.51244   23.01850
     177      444        3     0.00000   91.72852    2.25816   26.77127
     178      444        3     0.00000   87.46806    2.80809   23.85821
     179      444        2     0.00000   90.28674    0.86762   24.17714
     180      444        2     0.00000   90.51288    1.22882   22.00499
     181      444        2     0.00000   90.48381    4.84817   25.06319
     182      444        2     0.00000   90.65233    3.92027   23.08985
     183      444        1     0.00000   75.01090   16.92325   24.93635
     184      444        2     0.00000   72.93206   17.16912   25.66446
     185      444        2     0.00000   74.70645   17.39874   26.94933
     186      444        3     0.00000   74.46838   14.71673   23.84174
     187      444        2     0.00000   77.01217   16.80661   24.90037
     188      444        4     0.00000   75.62533   16.68105   21.51532
     189      444        2     0.00000   77.30535   16.86795   22.69530
     190      444        3     0.00000   74.64982   19.14787   23.01850
     191      444        3     0.00000   73.45759   17.40188   26.77127
     192      444        3     0.00000   77.71759   16.85222   23.85882
     193      444        2     0.00000   74.89970   18.79269   24.17775
     194      444        2     0.00000   74.67367   18.43149   22.00499
     195      444        2     0.00000   74.70219   14.81188   25.06319
     196      444        2     0.00000   74.53464   15.74004   23.08985
     197      444        1     0.00000   90.17617   16.92299   20.79879
     198      444        2     0.00000   92.25407   17.16912   20.07068
     199      444        2     0.00000   90.48063   17.39874   18.78581
     200      444        3     0.00000   90.71870   14.71673   21.89340
     201      444        2     0.00000   88.17490   16.80635   20.83477
     202      444        4     0.00000   89.56080   16.68105   24.22043
     203      444        2     0.00000   87.88173   16.86768   23.03984
     204      444        3     0.00000   90.53725   19.14787   22.71664
     205      444        3     0.00000   91.72948   17.40162   18.96387
     206      444        3     0.00000   87.46854   16.85222   21.87632
     207      444        2     0.00000   90.28738   18.79269   21.55800
     208      444        2     0.00000   90.51340   18.43149   23.73015
     209      444        2     0.00000   90.48489   14.81188   20.67256
     210      444        2     0.00000   90.65243   15.74004   22.64529
     211      444        1     0.00000   75.01191    2.73706   20.80001
     212      444        2     0.00000   72.93343    2.49093   20.07129
     213      444        2     0.00000   74.70750    2.26105   18.78703
     214      444        3     0.00000   74.46885    4.94358   21.89462
     215      444        2     0.00000   77.01222    2.85370   20.83660
     216      444        4     0.00000   75.62562    2.97926   24.22165
     217      444        2     0.00000   77.30526    2.79236   23.04167
     218      444        3     0.00000   74.64990    0.51244   22.71786
     219      444        3     0.00000   73.45856    2.25816   18.96509
     220      444        3     0.00000   77.71807    2.80809   21.87815
     221      444        2     0.00000   74.90034    0.86736   21.55922
     222      444        2     0.00000   74.67325    1.22882   23.73137
     223      444        2     0.00000   74.70232    4.84817   20.67317
     224      444        2     0.00000   74.53475    3.92027   22.64651
     225      444        1     0.00000   51.40844   10.36894   36.04526
     226      444        2     0.00000   49.32995   10.61507   35.31654
     227      444        2     0.00000   51.10402   10.84469   34.03167
     228      444        3     0.00000   50.86538    8.16242   37.13926
     229      444        2     0.00000   53.40875   10.25230   36.08124
     230      444        4     0.00000   52.02214   10.12648   39.46629
     231      444        2     0.00000   53.70179   10.31337   38.28631
     232      444        3     0.00000   51.04642   12.59356   37.96250
     233      444        3     0.00000   49.85508   10.84784   34.20973
     234      444        3     0.00000   54.11554   10.29791   37.12279
     235      444        2     0.00000   51.29686   12.23838   36.80386
     236      444        2     0.00000   51.07072   11.87718   38.97600
     237      444        2     0.00000   51.09979    8.25783   35.91781
     238      444        2     0.00000   50.93127    9.18573   37.89115
     239      444        1     0.00000   66.57270   22.39475   36.04465
     240      444        2     0.00000   68.65060   22.14888   35.31654
     241      444        2     0.00000   66.87715   21.91926   34.03167
     242      444        3     0.00000   67.11522   24.60127   37.13926
     243      444        2     0.00000   64.57143   22.51139   36.08063
     244      444        4     0.00000   65.95827   22.63695   39.46629
     245      444        2     0.00000   64.27825   22.45005   38.28570
     246      444        3     0.00000   66.93377   20.17013   37.96250
     247      444        3     0.00000   68.12601   21.91612   34.20973
     248      444        3     0.00000   63.86507   22.46578   37.12218
     249      444        2     0.00000   66.68390   20.52531   36.80386
     250      444        2     0.00000   66.90993   20.88651   38.97600
     251      444        2     0.00000   66.88141   24.50612   35.91781
     252      444        2     0.00000   67.04896   23.57796   37.89115
     253      444        1     0.00000   51.40837   22.39501   40.18221
     254      444        2     0.00000   49.32953   22.14888   40.91032
     255      444        2     0.00000   51.10297   21.91926   42.19519
     256      444        3     0.00000   50.86490   24.60127   39.08760
     257      444        2     0.00000   53.40870   22.51139   40.14623
     258      444        4     0.00000   52.02280   22.63695   36.76057
     259      444        2     0.00000   53.70187   22.45032   37.94116
     260      444        3     0.00000   51.04635   20.17013   38.26436
     261      444        3     0.00000   49.85412   21.91638   42.01713
     262      444        3     0.00000   54.11506   22.46578   39.10467
     263      444        2     0.00000   51.29622   20.52531   39.42300
     264      444        2     0.00000   51.07020   20.88651   37.25085
     265      444        2     0.00000   51.09871   24.50612   40.30844
     266      444        2     0.00000   50.93117   23.57796   38.33570
     267      444        1     0.00000   66.57263   10.36894   40.18099
     268      444        2     0.00000   68.65017   10.61507   40.90971
     269      444        2     0.00000   66.87705   10.84495   42.19397
     270      444        3     0.00000   67.11569    8.16242   39.08638
     271      444        2     0.00000   64.57138   10.25230   40.14440
     272      444        4     0.00000   65.95798   10.12674   36.75935
     273      444        2     0.00000   64.27834   10.31364   37.93933
     274      444        3     0.00000   66.93370   12.59356   38.26314
     275      444        3     0.00000   68.12504   10.84784   42.01591
     276      444        3     0.00000   63.86553   10.29791   39.10285
     277      444        2     0.00000   66.68326   12.23864   39.42178
     278      444        2     0.00000   66.91035   11.87718   37.24963
     279      444        2     0.00000   66.88128    8.25783   40.30783
     280      444        2     0.00000   67.04885    9.18573   38.33448
     281      444        1     0.00000   42.97566   15.84306   24.93574
     282      444        2     0.00000   45.05415   15.59693   25.66446
     283      444        2     0.00000   43.28008   15.36731   26.94933
     284      444        3     0.00000   43.51872   18.04958   23.84174
     285      444        2     0.00000   40.97535   15.95970   24.89976
     286      444        4     0.00000   42.36196   16.08552   21.51471
     287      444        2     0.00000   40.68231   15.89863   22.69469
     288      444        3     0.00000   43.33768   13.61844   23.01850
     289      444        3     0.00000   44.52902   15.36416   26.77127
     290      444        3     0.00000   40.26856   15.91409   23.85821
     291      444        2     0.00000   43.08724   13.97362   24.17714
     292      444        2     0.00000   43.31338   14.33482   22.00499
     293      444        2     0.00000   43.28431   17.95417   25.06319
     294      444        2     0.00000   43.45283   17.02627   23.08985
     295      444        1     0.00000   27.81140    3.81725   24.93635
     296      444        2     0.00000   25.73256    4.06312   25.66446
     297      444        2     0.00000   27.50695    4.29274   26.94933
     298      444        3     0.00000   27.26888    1.61073   23.84174
     299      444        2     0.00000   29.81267    3.70061   24.90037
     300      444        4     0.00000   28.42583    3.57505   21.51532
     301      444        2     0.00000   30.10585    3.76195   22.69530
     302      444        3     0.00000   27.45032    6.04187   23.01850
     303      444        3     0.00000   26.25809    4.29588   26.77127
     304      444        3     0.00000   30.51809    3.74622   23.85882
     305      444        2     0.00000   27.70020    5.68669   24.17775
     306      444        2     0.00000   27.47323    5.32549   22.00499
     307      444        2     0.00000   27.50269    1.70588   25.06319
     308      444        2     0.00000   27.33514    2.63404   23.08985
     309      444        1     0.00000   42.97667    3.81699   20.79879
     310      444        2     0.00000   45.05457    4.06312   20.07068
     311      444        2     0.00000   43.28113    4.29274   18.78581
     312      444        3     0.00000   43.51920    1.61073   21.89340
     313      444        2     0.00000   40.97540    3.70061   20.83477
     314      444        4     0.00000   42.36130    3.57505   24.22043
     315      444        2     0.00000   40.68223    3.76168   23.03984
     316      444        3     0.00000   43.33775    6.04187   22.71664
     317      444        3     0.00000   44.52998    4.29562   18.96387
     318      444        3     0.00000   40.26904    3.74622   21.87632
     319      444        2     0.00000   43.08788    5.68669   21.55800
     320      444        2     0.00000   43.31390    5.32549   23.73015
     321      444        2     0.00000   43.28539    1.70588   20.67256
     322      444        2     0.00000   43.45293    2.63404   22.64529
     323      444        1     0.00000   27.81241   15.84306   20.80001
     324      444        2     0.00000   25.73393   15.59693   20.07129
     325      444        2     0.00000   27.50800   15.36705   18.78703
     326      444        3     0.00000   27.26935   18.04958   21.89462
     327      444        2     0.00000   29.81272   15.95970   20.83660
     328      444        4     0.00000   28.42612   16.08526   24.22165
     329      444        2     0.00000   30.10576   15.89836   23.04167
     330      444        3     0.00000   27.45040   13.61844   22.71786
     331      444        3     0.00000   26.25906   15.36416   18.96509
     332      444        3     0.00000   30.51857   15.91409   21.87815
     333      444        2     0.00000   27.70084   13.97336   21.55922
     334      444        2     0.00000   27.47375   14.33482   23.73137
     335      444        2     0.00000   27.50282   17.95417   20.67317
     336      444        2     0.00000   27.33525   17.02627   22.64651
     337      444        1     0.00000   51.41589   23.47494    5.55476
     338      444        2     0.00000   49.33740   23.72107    4.82604
     339      444        2     0.00000   51.11147   23.95069    3.54117
     340      444        3     0.00000   50.87283   21.26842    6.64876
     341      444        2     0.00000   53.41620   23.35830    5.59074
     342      444        4     0.00000   52.02959   23.23248    8.97579
     343      444        2     0.00000   53.70924   23.41937    7.79581
     344      444        3     0.00000   51.05387   25.69956    7.47200
     345      444        3     0.00000   49.86253   23.95384    3.71923
     346      444        3     0.00000   54.12299   23.40391    6.63229
     347      444        2     0.00000   51.30431   25.34438    6.31336
     348      444        2     0.00000   51.07817   24.98318    8.48551
     349      444        2     0.00000   51.10724   21.36383    5.42731
     350      444        2     0.00000   50.93872   22.29173    7.40065
     351      444        1     0.00000   66.58015    9.28875    5.55415
     352      444        2     0.00000   68.65805    9.04288    4.82604
     353      444        2     0.00000   66.88460    8.81326    3.54117
     354      444        3     0.00000   67.12267   11.49527    6.64876
     355      444        2     0.00000   64.57888    9.40539    5.59013
     356      444        4     0.00000   65.96572    9.53095    8.97579
     357      444        2     0.00000   64.28570    9.34405    7.79520
     358      444        3     0.00000   66.94123    7.06413    7.47200
     359      444        3     0.00000   68.13346    8.81012    3.71923
     360      444        3     0.00000   63.87252    9.35978    6.63168
     361      444        2     0.00000   66.69135    7.41931    6.31336
     362      444        2     0.00000   66.91738    7.78051    8.48551
     363      444        2     0.00000   66.88886   11.40012    5.42731
     364      444        2     0.00000   67.05641   10.47196    7.40065
     365      444        1     0.00000   51.41582    9.28901    9.69171
     366      444        2     0.00000   49.33698    9.04288   10.41982
     367      444        2     0.00000   51.11042    8.81326   11.70469
     368      444        3     0.00000   50.87235   11.49527    8.59710
     369      444        2     0.00000   53.41615    9.40565    9.65573
     370      444        4     0.00000   52.03025    9.53095    6.27007
     371      444        2     0.00000   53.70932    9.34432    7.45066
     372      444        3     0.00000   51.05380    7.06413    7.77386
     373      444        3     0.00000   49.86157    8.81038   11.52663