Created on Tue Apr 19 23:38:34 2022 

        1620 atoms
        1845 bonds
        3672 angles
        4176 dihedrals
        2160 impropers

           6 atom types
          10 bond types
          20 angle types
           5 dihedral types
           1 improper types
           0.000000  67.051000 xlo xhi
           0.000000  46.671064 ylo yhi
           0.000000  18.482430 zlo zhi
         -27.566019  -2.482690  -4.332095 xy xz yz

Masses

    1   158.925350000 # Tb8f4
    2    12.010700000 # C_R
    3    14.006700000 # N_R
    4     1.007940000 # H_
    5    15.999400000 # O_R
    6    12.010700000 # C_3

Bond Coeffs

    1      245.977507        2.246212  # N_R Tb8f4
    2      247.398279        2.167807  # O_R Tb8f4
    3      166.829338        2.324424  # C_R Tb8f4
    4      663.718927        1.345073  # N_R C_R
    5      462.655054        1.379256  # C_R C_R
    6      357.440381        1.081418  # H_ C_R
    7      646.680887        1.311940  # C_R O_R
    8      391.669513        1.458000  # C_R C_R
    9      369.943935        1.486000  # C_3 C_R
   10      331.069389        1.109401  # H_ C_3

Angle Coeffs

    1                      fourier      116.125416        0.343737        0.374972        0.281246 # N_R Tb8f4 N_R
    2                      fourier      110.616721        0.343737        0.374972        0.281246 # N_R Tb8f4 O_R
    3                      fourier       82.827006        0.343737        0.374972        0.281246 # N_R Tb8f4 C_R
    4                      fourier      105.594011        0.343737        0.374972        0.281246 # O_R Tb8f4 O_R
    5                      fourier       78.736324        0.343737        0.374972        0.281246 # O_R Tb8f4 C_R
    6              cosine/periodic      153.699352              -1               3 # N_R C_R C_R
    7              cosine/periodic      111.297508              -1               3 # C_R C_R C_R
    8              cosine/periodic      120.000516              -1               3 # C_R N_R C_R
    9              cosine/periodic       80.220223              -1               3 # C_R N_R Tb8f4
   10              cosine/periodic       57.289016              -1               3 # C_R C_R H_
   11              cosine/periodic       79.786967              -1               3 # N_R C_R H_
   12              cosine/periodic      107.587815              -1               3 # Tb8f4 O_R C_R
   13              cosine/periodic      187.136328              -1               3 # O_R C_R O_R
   14              cosine/periodic      131.755710              -1               3 # O_R C_R C_R
   15              cosine/periodic      102.183280              -1               3 # C_R C_R C_R
   16              cosine/periodic       91.215838              -1               3 # Tb8f4 C_R O_R
   17              cosine/periodic       69.603876              -1               3 # Tb8f4 C_R C_R
   18              cosine/periodic       99.137149              -1               3 # C_R C_R C_3
   19                      fourier      121.777217        0.343737        0.374972        0.281246 # C_R C_3 H_
   20                      fourier       75.498766        0.343737        0.374972        0.281246 # H_ C_3 H_

Dihedral Coeffs

    1        3.368555              -1               2 # C_R N_R C_R C_R
    2        4.491407              -1               2 # O_R C_R O_R Tb8f4
    3        6.737110              -1               2 # O_R C_R O_R Tb8f4
    4        1.250000              -1               2 # C_R C_R C_R O_R
    5        0.833333              -1               2 # Tb8f4 C_R C_R C_R

Improper Coeffs

    1        2.000000        1.000000       -1.000000        0.000000               0 # N_R C_R C_R C_R

Pair Coeffs

    1        0.007000        3.074491 # Tb8f4 Tb8f4
    2        0.105000        3.430851 # C_R C_R
    3        0.069000        3.260689 # N_R N_R
    4        0.044000        2.571134 # H_ H_
    5        0.060000        3.118146 # O_R O_R
    6        0.105000        3.430851 # C_3 C_3

Atoms

       1      444        1     0.00000   52.86282   21.65089    2.45631
       2      444        2     0.00000   -7.55877   24.15892    2.78715
       3      444        3     0.00000   -8.14224   23.31208    1.86820
       4      444        2     0.00000   -7.04696   24.50826    0.11995
       5      444        2     0.00000   -6.71673   25.20881    2.34801
       6      444        2     0.00000   -7.86978   23.48398    0.57332
       7      444        2     0.00000   -6.49493   25.39197    0.96127
       8      444        2     0.00000   -7.26488   24.86797    5.11039
       9      444        2     0.00000   -7.83427   23.97900    4.17204
      10      444        2     0.00000   -6.41152   25.91666    4.65443
      11      444        2     0.00000   -6.15562   26.07836    3.36121
      12      444        1     0.00000   -9.91950   21.60576    2.75240
      13      444        3     0.00000   -8.64293   22.94640    4.53744
      14      444        2     0.00000   -7.59641   24.66634    6.47236
      15      444        2     0.00000   -8.90560   22.80267    5.84359
      16      444        2     0.00000   -8.38729   23.65739    6.83443
      17      444        4     0.00000  -10.72543   18.56771   18.43585
      18      444        4     0.00000   -8.59431   23.51933    7.73009
      19      444        4     0.00000   51.18645   20.35731    5.25529
      20      444        4     0.00000   49.05466   15.40569   15.96106
      21      444        4     0.00000   -9.45685   22.10251    6.10881
      22      444        4     0.00000   -7.25981   25.24346    7.12036
      23      444        4     0.00000   49.91720   16.82252   17.58234
      24      444        4     0.00000   -9.35769   20.25019   17.69120
      25      444        4     0.00000   -6.02817   26.49588    5.27156
      26      444        4     0.00000   -5.59705   26.77364    3.09692
      27      444        4     0.00000   49.81871   18.67483    5.99995
      28      444        4     0.00000   -5.98350   26.10120    0.64541
      29      444        4     0.00000   47.72083   13.68156   16.57079
      30      444        3     0.00000   51.08595   19.94504    3.34051
      31      444        2     0.00000   50.50248   19.09820    2.42157
      32      444        2     0.00000   49.99028   18.74839    5.08877
      33      444        2     0.00000   49.66044   18.04831    2.86071
      34      444        2     0.00000   50.81282   19.77314    4.63539
      35      444        2     0.00000   49.43797   17.86515    4.24745
      36      444        3     0.00000   51.58625   20.31025    0.67128
      37      444        2     0.00000   49.36595   16.12236   17.84756
      38      444        2     0.00000   50.20792   18.38915    0.09833
      39      444        2     0.00000   50.77799   19.27812    1.03668
      40      444        2     0.00000   48.05746   14.25872   17.21860
      41      444        2     0.00000   48.84862   15.26721   16.85653
      42      444        4     0.00000   48.92722   17.15592    4.56331
      43      444        4     0.00000   48.54076   16.48348    2.11180
      44      444        4     0.00000   46.48920   12.42915   18.41959
      45      444        5     0.00000   51.67262   23.30727    1.07235
      46      444        5     0.00000   53.88491   19.50513    2.24451
      47      444        5     0.00000  -10.93347   19.58729    2.10903
      48      444        5     0.00000   50.88479   22.91022    3.08490
      49      444        5     0.00000  -12.63482   21.96609    0.77903
      50      444        5     0.00000  -10.44604   22.00606    0.45319
      51      444        5     0.00000   -8.72888   19.94989    4.13618
      52      444        5     0.00000  -10.94187   23.75199    2.96421
      53      444        5     0.00000  -13.17449   23.66983    3.09969
      54      444        5     0.00000   -7.94108   20.34690    2.12382
      55      444        5     0.00000  -11.47314   21.29103    4.42968
      56      444        5     0.00000  -13.66124   21.25106    4.75553
      57      444        2     0.00000   55.01602   19.03918    1.92864
      58      444        2     0.00000   49.70858   24.48051    1.73772
      59      444        2     0.00000   48.57575   26.07887    0.33047
      60      444        2     0.00000   47.56657   26.17868    1.29451
      61      444        2     0.00000   48.69422   24.60411    2.69381
      62      444        2     0.00000   47.62404   25.46705    2.47480
      63      444        2     0.00000   49.64786   25.22963    0.57665
      64      444        2     0.00000  -11.61146   22.28442    0.10387
      65      444        2     0.00000   50.81480   23.50387    1.97984
      66      444        2     0.00000   49.09866   17.17876    1.84750
      67      444        2     0.00000   49.35523   17.34046    0.55429
      68      444        2     0.00000  -12.07298   24.21794    3.28008
      69      444        2     0.00000   -6.76487   18.77661    3.47100
      70      444        2     0.00000   -5.63204   17.17825    4.87825
      71      444        2     0.00000   -4.62353   17.07844    3.91421
      72      444        2     0.00000   -5.75050   18.65301    2.51490
      73      444        2     0.00000   -6.70414   18.02749    4.63207
      74      444        2     0.00000   -4.68033   17.79007    2.73392
      75      444        2     0.00000  -12.49583   20.97270    5.10485
      76      444        2     0.00000   -7.87175   19.75325    3.22888
      77      444        4     0.00000   46.84137   26.73703    1.13648
      78      444        4     0.00000   48.73421   24.10629    3.47765
      79      444        4     0.00000   46.95734   25.56104    3.11521
      80      444        4     0.00000   47.85180   20.83309   18.43401
      81      444        4     0.00000   -3.89833   16.52009    4.07223
      82      444        4     0.00000   -5.79050   19.15083    1.73106
      83      444        4     0.00000   -7.39075   18.09198    5.25696
      84      444        4     0.00000   -4.01335   17.69562    2.09350
      85      444        1     0.00000   23.81712   22.97777    1.07235
      86      444        2     0.00000   30.03973   19.66005    1.85434
      87      444        3     0.00000   29.43954   20.61783    2.64447
      88      444        2     0.00000   30.09580   19.38562    4.57828
      89      444        2     0.00000   30.66313   18.53762    2.45169
      90      444        2     0.00000   29.49023   20.47918    3.97077
      91      444        2     0.00000   30.64922   18.39953    3.86116
      92      444        2     0.00000   28.10271   14.47059   18.11075
      93      444        2     0.00000   30.00109   19.80147    0.43859
      94      444        2     0.00000   31.21711   17.68155    0.24397
      95      444        2     0.00000   31.25281   17.55565    1.56565
      96      444        1     0.00000   28.05080   22.48234    1.44181
      97      444        3     0.00000   26.91462   16.57341   18.40222
      98      444        2     0.00000   28.00786   14.64207   16.70812
      99      444        2     0.00000   26.87175   16.68232   17.06742
     100      444        2     0.00000   27.41723   15.72069   16.19615
     101      444        4     0.00000   29.10644   21.13580    4.50657
     102      444        4     0.00000   27.36736   15.83757   15.27536
     103      444        4     0.00000   20.27876   19.99218   16.49021
     104      444        4     0.00000   22.01814   25.28998    5.72124
     105      444        4     0.00000   26.46173   17.43029   16.69777
     106      444        4     0.00000   28.35992   13.99567   16.13867
     107      444        4     0.00000   22.92377   23.69726    4.29883
     108      444        4     0.00000   30.11746   19.33782    5.50702
     109      444        4     0.00000   29.12762   12.69651   18.19484
     110      444        4     0.00000   31.67096   16.81095    1.93530
     111      444        4     0.00000   19.26777   21.79020   15.48957
     112      444        4     0.00000   31.01082   17.64965    4.27480
     113      444        4     0.00000   21.02558   27.13188    4.85792
     114      444        3     0.00000   19.94568   20.51018   18.35213
     115      444        2     0.00000   21.82818   25.80006    0.65982
     116      444        2     0.00000   19.28970   21.74192   16.41831
     117      444        2     0.00000   21.20504   26.92199    0.06266
     118      444        2     0.00000   19.89527   20.64837   17.02583
     119      444        2     0.00000   18.73601   22.72848   17.13543
     120      444        3     0.00000   22.47086   24.55410    2.59456
     121      444        2     0.00000   22.51345   24.44565    3.92936
     122      444        2     0.00000   21.28279   26.65696    2.88585
     123      444        2     0.00000   21.86708   25.65813    2.07576
     124      444        2     0.00000   21.37764   26.48548    4.28848
     125      444        2     0.00000   21.96825   25.40681    4.80063
     126      444        4     0.00000   18.37466   23.47785   16.72198
     127      444        4     0.00000   20.19723   28.64870    0.57887
     128      444        4     0.00000   20.25788   28.43104    2.80175
     129      444        5     0.00000   22.22745   21.55319    2.30568
     130      444        5     0.00000   25.06449   24.98975    1.37306
     131      444        5     0.00000   27.22235   24.64036    1.85619
     132      444        5     0.00000   21.80926   21.94134    0.18372
     133      444        5     0.00000   25.04710   22.55964    2.97974
     134      444        5     0.00000   27.13778   22.26703    3.64270
     135      444        5     0.00000   29.64044   23.90688    0.20867
     136      444        5     0.00000   26.80340   20.47031    1.14129
     137      444        5     0.00000   24.64584   20.81929    0.65797
     138      444        5     0.00000   30.05893   23.51830    2.33045
     139      444        5     0.00000   24.33813   18.56838   18.01686
     140      444        5     0.00000   22.24772   18.86052   17.35389
     141      444        2     0.00000   26.18646   25.32829    1.84621
     142      444        2     0.00000   20.25127   20.59818    1.38027
     143      444        2     0.00000   18.72301   19.22487    2.64373
     144      444        2     0.00000   17.86580   19.20111    1.53848
     145      444        2     0.00000   19.38439   20.55210    0.28260
     146      444        2     0.00000   18.19111   19.83962    0.35948
     147      444        2     0.00000   19.92040   19.92200    2.54078
     148      444        2     0.00000   25.90728   22.15241    3.81514
     149      444        2     0.00000   21.49829   21.41778    1.28250
     150      444        2     0.00000   20.61443   27.90446    0.94852
     151      444        2     0.00000   20.65105   27.77805    2.27038
     152      444        2     0.00000   25.68171   20.13131    0.66814
     153      444        2     0.00000   31.61692   24.86146    1.13390
     154      444        2     0.00000   30.66249   21.90268   18.35287
     155      444        2     0.00000   34.00236   26.25849    0.97587
     156      444        2     0.00000   32.48353   24.90801    2.23157
     157      444        2     0.00000   29.46510   21.20555   18.45582
     158      444        2     0.00000   33.67680   25.62049    2.15468
     159      444        2     0.00000   23.47823   18.97514   17.18145
     160      444        2     0.00000   30.36990   24.04187    1.23167
     161      444        4     0.00000   17.05863   18.74492    1.59910
     162      444        4     0.00000   17.12351   16.66823   17.98174
     163      444        4     0.00000   15.13835   15.46371   18.10890
     164      444        4     0.00000   20.50797   19.93345    3.26252
     165      444        4     0.00000   34.80956   26.71472    0.91507
     166      444        4     0.00000   32.26196   24.45928    3.01504
     167      444        4     0.00000   28.87753   21.19410   17.73408
     168      444        4     0.00000   34.24688   25.66430    2.88769
     169      444        1     0.00000   37.51955    5.43649    0.70381
     170      444        2     0.00000    6.51178   41.04888   17.14282
     171      444        3     0.00000    6.03854   42.22023   16.58964
     172      444        2     0.00000    6.55313   41.36520   14.42332
     173      444        2     0.00000    7.02931   40.02928   16.30779
     174      444        2     0.00000    6.04960   42.35274   15.26168
     175      444        2     0.00000    7.07248   40.22987   14.90645
     176      444        2     0.00000    9.49640   44.03868    0.64374
     177      444        2     0.00000    8.97922   45.22347    0.07504
     178      444        2     0.00000    7.52412   38.68399   18.27210
     179      444        2     0.00000    7.53322   38.83415   16.95245
     180      444        1     0.00000   32.96136   -2.51264   18.22663
     181      444        3     0.00000    8.46152   46.23243    0.82801
     182      444        2     0.00000    9.48850   43.94547    2.05691
     183      444        2     0.00000    8.47115   46.07504    2.15856
     184      444        2     0.00000    8.98306   44.93021    2.79769
     185      444        4     0.00000    5.70940   43.13227   14.88483
     186      444        4     0.00000    8.96778   44.86188    3.72439
     187      444        4     0.00000   37.20591    6.46316    4.04543
     188      444        4     0.00000   33.94778    4.73304   15.20605
     189      444        4     0.00000   35.68746    0.08482    2.68661
     190      444        4     0.00000    9.84056   43.19053    2.47221
     191      444        4     0.00000   34.79412    2.83903   16.24384
     192      444        4     0.00000    6.52821   41.49651   13.50271
     193      444        4     0.00000   10.33780   42.23157    0.16191
     194      444        4     0.00000    7.87512   38.14966   16.42404
     195      444        4     0.00000   36.38667    8.09841    5.42774
     196      444        4     0.00000    7.44876   39.59516   14.34089
     197      444        4     0.00000   33.07502    6.40443   16.45805
     198      444        3     0.00000   36.87635    7.37469    2.34080
     199      444        2     0.00000   36.40313    8.54609    1.78744
     200      444        2     0.00000   36.36243    8.22972    4.50713
     201      444        2     0.00000   35.88627    9.56568    2.62247
     202      444        2     0.00000   36.86599    7.24222    3.66858
     203      444        2     0.00000   35.84280    9.36552    4.02399
     204      444        3     0.00000   34.45406    3.36253   18.10225
     205      444        2     0.00000   34.44443    3.51992   16.77170
     206      444        2     0.00000   33.41889    5.55671   18.28670
     207      444        2     0.00000   36.41839    8.70358    0.37279
     208      444        2     0.00000   33.42639    5.64945   16.87353
     209      444        2     0.00000   33.93182    4.66471   16.13276
     210      444        4     0.00000   35.46655   10.00027    4.58937
     211      444        4     0.00000   35.03951   11.44577    2.50622
     212      444        4     0.00000   35.06047   11.69549    0.28592
     213      444        5     0.00000   37.04942    1.81623   17.95328
     214      444        5     0.00000   35.14404    5.62067    0.56519
     215      444        5     0.00000   31.66682   -0.55297   18.25473
     216      444        5     0.00000   39.57534    6.30160    1.66231
     217      444        5     0.00000   34.55830    0.24075   17.10050
     218      444        5     0.00000   33.54607   -1.48127   16.14810
     219      444        5     0.00000   33.43218    1.10766    0.97698
     220      444        5     0.00000   35.33729   -2.69630   18.36507
     221      444        5     0.00000   38.81449    3.47729    0.67572
     222      444        5     0.00000   30.90598   -3.37724   17.26795
     223      444        5     0.00000   35.92302    2.68362    1.82976
     224      444        5     0.00000   36.93526    4.40563    2.78216
     225      444        2     0.00000   34.19404    5.00084    0.00185
     226      444        2     0.00000   41.50557    7.02764    0.47426
     227      444        2     0.00000   40.95683    3.39276   17.69452
     228      444        2     0.00000   44.01640    8.19186    0.39756
     229      444        2     0.00000   42.10680    7.49088    1.64993
     230      444        2     0.00000   43.37337    8.06597    1.61167
     231      444        2     0.00000   39.70052    2.80114   17.75552
     232      444        2     0.00000   34.34397   -0.52281   16.11298
     233      444        2     0.00000   40.12115    6.46552    0.54283
     234      444        2     0.00000   35.38237   10.76081    1.97780
     235      444        2     0.00000   35.39146   10.91098    0.65816
     236      444        2     0.00000   38.77209    2.25836    0.43230
     237      444        2     0.00000   28.97576   -4.10328   18.45600
     238      444        2     0.00000    1.95848   46.20267    1.23574
     239      444        2     0.00000    1.38120   45.73519    0.05027
     240      444        2     0.00000    0.80879   42.10408   17.28033
     241      444        2     0.00000   30.78041    0.12276    1.17474
     242      444        2     0.00000   -0.45874   41.52946   17.31859
     243      444        2     0.00000   36.13694    3.44667    2.81746
     244      444        2     0.00000   30.36043   -3.54167   18.38762
     245      444        4     0.00000   44.85239    8.59661    0.36725
     246      444        4     0.00000   41.65610    7.41684    2.45964
     247      444        4     0.00000   43.78033    8.36106    2.39366
     248      444        4     0.00000   39.31087    2.47154   16.97741
     249      444        4     0.00000    0.54558   45.33087    0.08077
     250      444        4     0.00000    1.25881   42.17812   16.47062
     251      444        4     0.00000   31.17045    0.45282    1.95285
     252      444        4     0.00000   -0.86505   41.23433   16.53678
     253      444        1     0.00000   23.66058   39.08828    3.79574
     254      444        2     0.00000   30.28959   41.59585    4.12657
     255      444        3     0.00000   29.70612   40.74901    3.20763
     256      444        2     0.00000   30.80179   41.94566    1.45937
     257      444        2     0.00000   31.13135   42.64620    3.68743
     258      444        2     0.00000   29.97900   40.92141    1.91256
     259      444        2     0.00000   31.35410   42.82889    2.30069
     260      444        2     0.00000   30.58415   42.30489    6.44981
     261      444        2     0.00000   30.01409   41.41593    5.51146
     262      444        2     0.00000   31.43684   43.35359    5.99385
     263      444        2     0.00000   31.69341   43.51529    4.70064
     264      444        1     0.00000   27.92925   39.04315    4.09183
     265      444        3     0.00000   29.20582   40.38379    5.87686
     266      444        2     0.00000   30.25194   42.10327    7.81178
     267      444        2     0.00000   28.94346   40.23963    7.18283
     268      444        2     0.00000   29.46079   41.09478    8.17385
     269      444        4     0.00000   29.60537   40.33724    1.29266
     270      444        4     0.00000   29.25472   40.95626    9.06951
     271      444        4     0.00000   21.98381   37.79424    6.59472
     272      444        4     0.00000   19.85242   32.84309   17.30048
     273      444        4     0.00000   28.39221   39.53948    7.44805
     274      444        4     0.00000   30.58855   42.68039    8.45978
     275      444        4     0.00000   23.19764   38.59201    0.43933
     276      444        4     0.00000   30.97311   42.01972    0.54800
     277      444        4     0.00000   31.81991   43.93327    6.61098
     278      444        4     0.00000   32.25104   44.21103    4.43634
     279      444        4     0.00000   20.61607   36.11176    7.33937
     280      444        4     0.00000   31.86525   43.53859    1.98483
     281      444        4     0.00000   18.51794   31.11900   17.91003
     282      444        3     0.00000   21.88304   37.38243    4.67994
     283      444        2     0.00000   21.29956   36.53559    3.76099
     284      444        2     0.00000   20.78806   36.18583    6.42800
     285      444        2     0.00000   20.45780   35.48523    4.20013
     286      444        2     0.00000   21.61085   37.21007    5.97482
     287      444        2     0.00000   20.23573   35.30254    5.58687
     288      444        3     0.00000   22.38401   37.74765    2.01070
     289      444        2     0.00000   22.64640   37.89185    0.70455
     290      444        2     0.00000   21.00570   35.82659    1.43756
     291      444        2     0.00000   21.57509   36.71555    2.37592
     292      444        2     0.00000   21.33724   36.02821    0.07559
     293      444        2     0.00000   19.64543   32.70507   18.19595
     294      444        4     0.00000   19.72458   34.59285    5.90273
     295      444        4     0.00000   19.33812   33.92041    3.45122
     296      444        4     0.00000   19.76900   34.19868    1.27640
     297      444        5     0.00000   22.46967   40.74462    2.41196
     298      444        5     0.00000   24.68294   36.94206    3.58393
     299      444        5     0.00000   26.91492   37.02426    3.44827
     300      444        5     0.00000   21.68252   40.34757    4.42451
     301      444        5     0.00000   25.21393   39.40348    2.11846
     302      444        5     0.00000   27.40206   39.44350    1.79243
     303      444        5     0.00000   29.11948   37.38682    5.47560
     304      444        5     0.00000   26.90689   41.18938    4.30363
     305      444        5     0.00000   24.67426   41.10722    4.43911
     306      444        5     0.00000   29.90703   37.78433    3.46305
     307      444        5     0.00000   26.37589   38.72796    5.76911
     308      444        5     0.00000   24.18712   38.68798    6.09495
     309      444        2     0.00000   25.81408   36.47615    3.26788
     310      444        2     0.00000   20.50564   41.91786    3.07732
     311      444        2     0.00000   19.37346   43.51618    1.67026
     312      444        2     0.00000   18.36430   43.61602    2.63412
     313      444        2     0.00000   19.49194   42.04146    4.03342
     314      444        2     0.00000   18.42175   42.90436    3.81459
     315      444        2     0.00000   20.44559   42.66698    1.91626
     316      444        2     0.00000   26.23662   39.72181    1.44329
     317      444        2     0.00000   21.61252   40.94122    3.31944
     318      444        2     0.00000   19.89644   34.61619    3.18674
     319      444        2     0.00000   20.15234   34.77790    1.89352
     320      444        2     0.00000   25.77577   41.65533    4.61950
     321      444        2     0.00000   31.08354   36.21362    4.81005
     322      444        2     0.00000   32.21637   34.61526    6.21730
     323      444        2     0.00000   33.22488   34.51546    5.25326
     324      444        2     0.00000   32.09788   36.08998    3.85414
     325      444        2     0.00000   31.14424   35.46446    5.97130
     326      444        2     0.00000   33.16808   35.22708    4.07297
     327      444        2     0.00000   25.35256   38.40967    6.44408
     328      444        2     0.00000   29.97638   37.19073    4.56793
     329      444        4     0.00000   17.63908   44.17434    2.47628
     330      444        4     0.00000   19.53194   41.54364    4.81726
     331      444        4     0.00000   17.75505   42.99834    4.45501
     332      444        4     0.00000   21.13155   42.60254    1.29118
     333      444        4     0.00000   33.95011   33.95714    5.41110
     334      444        4     0.00000   32.05791   36.58784    3.07012
     335      444        4     0.00000   30.45763   35.52895    6.59619
     336      444        4     0.00000   33.83478   35.13310    3.43256
     337      444        1     0.00000  -14.31037   38.21104    5.10522
     338      444        2     0.00000   -8.08750   34.89281    5.88739
     339      444        3     0.00000   -8.68769   35.85058    6.67752
     340      444        2     0.00000   -8.03171   34.61884    8.61133
     341      444        2     0.00000   -7.46438   33.77083    6.48475
     342      444        2     0.00000   -8.63728   35.71239    8.00382
     343      444        2     0.00000   -7.47829   33.63275    7.89422
     344      444        2     0.00000   -7.54211   34.03590    3.66137
     345      444        2     0.00000   -8.12573   35.03474    4.47145
     346      444        2     0.00000   -6.91039   32.91477    4.27702
     347      444        2     0.00000   -6.87403   32.78887    5.59870
     348      444        1     0.00000  -10.07576   37.71509    5.47487
     349      444        3     0.00000   -8.73020   36.13872    3.95284
     350      444        2     0.00000   -7.63695   34.20738    2.25874
     351      444        2     0.00000   -8.77304   36.24768    2.61785
     352      444        2     0.00000   -8.22690   35.28605    1.74659
     353      444        4     0.00000   -9.02107   36.36901    8.53962
     354      444        4     0.00000   -8.27679   35.40289    0.82598
     355      444        4     0.00000  -15.36576   39.55707    2.04065
     356      444        4     0.00000  -16.10934   40.52324    9.75410
     357      444        4     0.00000   -9.18309   36.99560    2.24839
     358      444        4     0.00000   -7.28422   33.56098    1.68929
     359      444        4     0.00000  -15.20371   38.93052    8.33169
     360      444        4     0.00000   -8.01005   34.57104    9.54008