Created on Tue Apr 19 23:41:47 2022 

        3420 atoms
        3816 bonds
        6660 angles
        7632 dihedrals
        5184 impropers

           6 atom types
           8 bond types
          17 angle types
           3 dihedral types
           1 improper types
           0.000000  58.914000 xlo xhi
           0.000000  51.019478 ylo yhi
           0.000000  90.883000 zlo zhi
         -29.459671   0.001586  -0.000916 xy xz yz

Masses

    1    58.933195000 # Co6+3
    2    15.999400000 # O_2
    3    12.010700000 # C_R
    4    15.999400000 # O_R
    5     1.007940000 # H_
    6    14.006700000 # N_R

Bond Coeffs

    1      237.617070        1.984073  # O_2 Co6+3
    2      295.320839        1.908455  # N_R Co6+3
    3      646.680887        1.311940  # O_R C_R
    4      714.557442        1.269010  # O_2 C_R
    5      391.669513        1.458000  # C_R C_R
    6      357.440381        1.081418  # C_R H_
    7      462.655054        1.379256  # C_R C_R
    8      663.718927        1.345073  # C_R N_R

Angle Coeffs

    1      119.273912               1               4 # O_2 Co6+3 O_2
    2      139.581815               1               4 # O_2 Co6+3 N_R
    3      163.965015               1               4 # N_R Co6+3 N_R
    4       60.392667              -1               3 # Co6+3 O_2 Co6+3
    5      196.560025              -1               3 # O_R C_R O_2
    6      131.755710              -1               3 # O_R C_R C_R
    7      137.714246              -1               3 # O_2 C_R C_R
    8       81.001252              -1               3 # Co6+3 O_2 C_R
    9      206.778426              -1               3 # O_2 C_R O_2
   10       57.289016              -1               3 # H_ C_R C_R
   11      111.297508              -1               3 # C_R C_R C_R
   12       82.917736              -1               3 # Co6+3 N_R C_R
   13      120.000516              -1               3 # C_R N_R C_R
   14       79.786967              -1               3 # H_ C_R N_R
   15      153.699352              -1               3 # C_R C_R N_R
   16      102.183280              -1               3 # C_R C_R C_R
   17      140.838129              -1               3 # C_R C_R N_R

Dihedral Coeffs

    1        6.737110              -1               2 # Co6+3 O_2 C_R O_R
    2        1.250000              -1               2 # C_R C_R C_R O_R
    3        3.368555              -1               2 # H_ C_R C_R H_

Improper Coeffs

    1        2.000000        1.000000       -1.000000        0.000000               0 # O_R C_R O_2 C_R

Pair Coeffs

    1        0.014000        2.558661 # Co6+3 Co6+3
    2        0.060000        3.118146 # O_2 O_2
    3        0.105000        3.430851 # C_R C_R
    4        0.060000        3.118146 # O_R O_R
    5        0.044000        2.571134 # H_ H_
    6        0.069000        3.260689 # N_R N_R

Atoms

       1      444        1     0.00000   -6.38750   14.23029    6.65627
       2      444        1     0.00000   -9.15950   16.42105    7.50330
       3      444        2     0.00000   -7.16698   15.73025    7.97226
       4      444        3     0.00000   -4.20924   16.15116    7.33608
       5      444        4     0.00000   -5.03408   17.06543    7.67689
       6      444        3     0.00000   -8.74942   16.65061   10.47972
       7      444        4     0.00000   -7.77700   15.87358   10.48245
       8      444        2     0.00000   49.09271   14.48384    7.71506
       9      444        2     0.00000   50.65957   13.33132    6.58084
      10      444        5     0.00000   45.41040   17.10831    4.95131
      11      444        5     0.00000   -4.67158   14.20016    9.22735
      12      444        2     0.00000   -4.48874   15.10272    6.76897
      13      444        5     0.00000   53.08057    9.84565    9.07739
      14      444        5     0.00000   -3.45137   10.63497    4.37238
      15      444        5     0.00000   -7.26175   12.87217    4.11609
      16      444        5     0.00000   52.40915   11.15941    7.52420
      17      444        5     0.00000   -3.97517   12.27982    5.92557
      18      444        2     0.00000   -9.39309   16.95827    9.47546
      19      444        5     0.00000   47.57112   16.32822    5.35483
      20      444        5     0.00000   47.60643   18.19856    8.85110
      21      444        5     0.00000   52.07207   11.21457    2.61016
      22      444        5     0.00000   -3.96921   12.67976   10.94686
      23      444        5     0.00000   -4.83703   10.17479    2.75557
      24      444        5     0.00000   -4.44071   10.48133   10.60332
      25      444        2     0.00000   -6.89012   15.42620    5.00856
      26      444        5     0.00000   -6.34361   20.67505    8.59662
      27      444        5     0.00000   -9.25982   18.86491    5.47570
      28      444        5     0.00000   -8.30287   20.94395    5.09763
      29      444        5     0.00000   -6.84418   21.85004    6.65900
      30      444        5     0.00000   -7.29967   18.59549    8.97288
      31      444        5     0.00000   45.40595   18.90263    8.52392
      32      444        5     0.00000   44.54931   18.77612    6.38907
      33      444        2     0.00000   -8.85435   16.30475    5.49206
      34      444        3     0.00000   49.53166   13.44917    7.12432
      35      444        3     0.00000   45.87876   17.37565    5.70927
      36      444        3     0.00000   45.87197   18.47203    7.84320
      37      444        6     0.00000   47.80175   17.23584    7.15431
      38      444        3     0.00000   47.15133   16.88688    5.96829
      39      444        3     0.00000   47.17193   17.98786    8.05769
      40      444        3     0.00000   45.30962   18.29501    6.62537
      41      444        3     0.00000   -4.94725   13.31242    9.20463
      42      444        6     0.00000   -5.77234   12.91295    8.24127
      43      444        3     0.00000   -4.46910   12.39661   10.21616
      44      444        3     0.00000   -4.79777   11.12010   10.02803
      45      444        3     0.00000   -5.57514   10.73798    9.10375
      46      444        3     0.00000   -6.00674   11.51501    8.22309
      47      444        3     0.00000   -4.25881   11.09159    4.30967
      48      444        3     0.00000   -6.46904   12.39412    4.19789
      49      444        3     0.00000   -4.58199   12.08391    5.25122
      50      444        6     0.00000   -5.67340   12.71502    5.20850
      51      444        3     0.00000   -6.22687   11.42986    3.27451
      52      444        3     0.00000   -5.06858   10.82273    3.38176
      53      444        3     0.00000   -7.96681   15.91344    4.73046
      54      444        3     0.00000   -6.92715   20.31230    7.97135
      55      444        3     0.00000   -8.67628   19.22765    6.10007
      56      444        3     0.00000   -8.10223   20.47304    5.87468
      57      444        3     0.00000   -7.22737   21.01690    6.81077
      58      444        6     0.00000   -8.37370   18.52306    7.26155
      59      444        3     0.00000   -7.50237   19.06590    8.19583
      60      444        1     0.00000   22.48905   39.62268    6.65627
      61      444        1     0.00000   21.97787   36.12682    7.50330
      62      444        2     0.00000   21.57952   38.19718    7.97226
      63      444        3     0.00000   19.73567   40.54868    7.33698
      64      444        4     0.00000   19.35721   39.37676    7.67689
      65      444        3     0.00000   21.57406   36.36709   10.47972
      66      444        4     0.00000   21.76075   37.59768   10.48245
      67      444        2     0.00000   23.98653   36.52222    7.71506
      68      444        2     0.00000   24.20086   38.45484    6.58084
      69      444        5     0.00000   23.55458   32.02080    4.95131
      70      444        5     0.00000   21.65715   41.12365    9.22735
      71      444        2     0.00000   20.78372   40.83031    6.76897
      72      444        5     0.00000   26.00936   42.29455    9.07739
      73      444        5     0.00000   24.13425   43.96242    4.37147
      74      444        5     0.00000   24.10237   39.54363    4.11609
      75      444        5     0.00000   25.20669   41.05632    7.52420
      76      444        5     0.00000   22.97138   42.68692    5.92557
      77      444        2     0.00000   21.62946   35.65589    9.47546
      78      444        5     0.00000   23.14973   34.28197    5.35574
      79      444        5     0.00000   21.51203   33.37787    8.85200
      80      444        5     0.00000   25.32769   40.73648    2.61016
      81      444        5     0.00000   22.62241   42.49248   10.94686
      82      444        5     0.00000   25.22507   42.99256    2.75557
      83      444        5     0.00000   24.76272   43.18329   10.60332
      84      444        2     0.00000   21.70434   38.58904    5.00856
      85      444        5     0.00000   16.88594   36.43802    8.59753
      86      444        5     0.00000   19.91150   34.81717    5.47570
      87      444        5     0.00000   17.63242   34.60646    5.09854
      88      444        5     0.00000   16.11831   35.41663    6.65991
      89      444        5     0.00000   19.16473   36.65026    8.97288
      90      444        5     0.00000   22.00260   31.12027    8.52483
      91      444        5     0.00000   22.54049   30.44071    6.38998
      92      444        2     0.00000   21.92598   36.44826    5.49297
      93      444        3     0.00000   24.66310   37.41965    7.12523
      94      444        3     0.00000   23.08887   32.29272    5.70927
      95      444        3     0.00000   22.14277   31.73863    7.84411
      96      444        6     0.00000   22.24810   34.02839    7.15431
      97      444        3     0.00000   22.87583   33.63912    5.96829
      98      444        3     0.00000   21.91206   33.10646    8.05860
      99      444        3     0.00000   22.57727   31.34018    6.62628
     100      444        3     0.00000   22.56383   41.32875    9.20463
     101      444        6     0.00000   23.32235   40.81397    8.24127
     102      444        3     0.00000   23.11788   42.20066   10.21616
     103      444        3     0.00000   24.38805   42.55474   10.02803
     104      444        3     0.00000   25.10710   42.07261    9.10375
     105      444        3     0.00000   24.64995   41.31039    8.22309
     106      444        3     0.00000   24.14255   43.03489    4.30967
     107      444        3     0.00000   24.11970   40.46963    4.19789
     108      444        3     0.00000   23.44477   42.25887    5.25122
     109      444        6     0.00000   23.44365   40.99869    5.20850
     110      444        3     0.00000   24.83398   41.16095    3.27451
     111      444        3     0.00000   24.78030   42.46807    3.38176
     112      444        3     0.00000   21.82075   37.41305    4.73137
     113      444        3     0.00000   17.49158   36.11355    7.97226
     114      444        3     0.00000   19.30586   35.14164    6.10098
     115      444        3     0.00000   17.93994   35.01563    5.87559
     116      444        3     0.00000   17.03148   35.50133    6.81168
     117      444        6     0.00000   19.76420   35.75591    7.26246
     118      444        3     0.00000   18.85868   36.23956    8.19674
     119      444        1     0.00000   15.51654    0.91573    6.65627
     120      444        1     0.00000   18.79947    2.22131    7.50330
     121      444        2     0.00000   17.20563    0.84123    7.97226
     122      444        3     0.00000  -13.36856   49.08832    7.33698
     123      444        4     0.00000  -12.16407   49.34596    7.67780
     124      444        3     0.00000   18.79336    1.75139   10.47972
     125      444        4     0.00000   17.63484    1.29783   10.48335
     126      444        2     0.00000   17.45321    3.76312    7.71506
     127      444        2     0.00000   15.67197    2.98202    6.58084
     128      444        5     0.00000   21.56732    5.64015    4.95131
     129      444        5     0.00000  -14.82642   50.46429    9.22735
     130      444        2     0.00000  -14.13626   49.85464    6.76897
     131      444        5     0.00000   11.44289    2.62843    9.07739
     132      444        5     0.00000   10.93539    0.17087    4.37238
     133      444        5     0.00000   14.77823    2.35247    4.11609
     134      444        5     0.00000   12.91630    2.55294    7.52511
     135      444        5     0.00000  -16.83782   50.82146    5.92557
     136      444        2     0.00000   19.38158    2.15497    9.47546
     137      444        5     0.00000   19.81118    4.15854    5.35574
     138      444        5     0.00000   21.41346    3.19271    8.85200
     139      444        5     0.00000   13.13242    2.81727    2.61016
     140      444        5     0.00000  -16.49484   50.61631   10.94686
     141      444        5     0.00000   11.23015    1.60096    2.75557
     142      444        5     0.00000   11.29659    1.10446   10.60423
     143      444        2     0.00000   16.80379    0.75351    5.00856
     144      444        5     0.00000   -8.38321   48.67505    8.59753
     145      444        5     0.00000   20.96694    1.08666    5.47570
     146      444        5     0.00000   -7.17120   50.23781    5.09854
     147      444        5     0.00000   -7.11570   48.52150    6.65991
     148      444        5     0.00000   -9.70621   50.54287    8.97288
     149      444        5     0.00000   23.12335    4.74626    8.52392
     150      444        5     0.00000   23.44259    5.55137    6.38998
     151      444        2     0.00000   18.54730    2.01521    5.49297
     152      444        3     0.00000   16.33736    3.89986    7.12523
     153      444        3     0.00000   21.56442    5.10036    5.70927
     154      444        3     0.00000   22.51771    4.55851    7.84411
     155      444        6     0.00000   20.48198    3.50497    7.15431
     156      444        3     0.00000   20.50490    4.24272    5.96829
     157      444        3     0.00000   21.44847    3.67485    8.05860
     158      444        3     0.00000   22.64580    5.13351    6.62628
     159      444        3     0.00000   14.00195    0.12797    9.20463
     160      444        6     0.00000   14.06816    1.04173    8.24127
     161      444        3     0.00000   12.96950    0.17132   10.21616
     162      444        3     0.00000   12.02829    1.09427   10.02894
     163      444        3     0.00000   12.08597    1.95855    9.10375
     164      444        3     0.00000   12.97467    1.94376    8.22400
     165      444        3     0.00000   11.73453    0.64178    4.30967
     166      444        3     0.00000   13.96760    1.90451    4.19879
     167      444        3     0.00000   12.75554    0.42545    5.25213
     168      444        6     0.00000   13.84777    1.05503    5.20850
     169      444        3     0.00000   13.01198    2.17697    3.27451
     170      444        3     0.00000   11.90650    1.47749    3.38176
     171      444        3     0.00000   17.76405    1.44227    4.73137
     172      444        3     0.00000   -8.40535   49.36229    7.97226
     173      444        3     0.00000   20.98908    0.39942    6.10098
     174      444        3     0.00000   -7.67873   50.29953    5.87559
     175      444        3     0.00000   -7.64508   49.26995    6.81077
     176      444        6     0.00000   20.22793    0.49022    7.26246
     177      444        3     0.00000   -9.19750   50.48318    8.19674
     178      444        1     0.00000   15.51904    1.58331   84.22673
     179      444        1     0.00000   18.80237    0.27824   83.37970
     180      444        2     0.00000   17.20778    1.65832   82.91074
     181      444        3     0.00000   16.09329    4.43020   83.54692
     182      444        4     0.00000   17.29750    4.17307   83.20611
     183      444        3     0.00000   18.79611    0.74816   80.40328
     184      444        4     0.00000   17.63695    1.20172   80.40055
     185      444        2     0.00000  -12.00400   49.75591   83.16794
     186      444        2     0.00000  -13.78558   50.53649   84.30216
     187      444        5     0.00000   -7.88989   47.87938   85.93169
     188      444        5     0.00000   14.63491    3.05422   81.65565
     189      444        2     0.00000   15.32510    3.66388   84.11403
     190      444        5     0.00000  -18.01478   50.89008   81.80561
     191      444        5     0.00000   10.93730    2.32817   86.51062
     192      444        5     0.00000   14.78008    0.14708   86.76691
     193      444        5     0.00000  -16.54132   50.96558   83.35880
     194      444        5     0.00000   12.62367    2.69705   84.95743
     195      444        2     0.00000   19.38440    0.34458   81.40754
     196      444        5     0.00000   -9.64590   49.36048   85.52817
     197      444        5     0.00000   -8.04385   50.32632   82.03190
     198      444        5     0.00000  -16.32501   50.70125   88.27284
     199      444        5     0.00000   12.96704    2.90220   79.93614
     200      444        5     0.00000   11.23168    0.89808   88.12743
     201      444        5     0.00000   11.29897    1.39457   80.27968
     202      444        2     0.00000   16.80604    1.74604   85.87444
     203      444        5     0.00000   21.07826    4.84398   82.28638
     204      444        5     0.00000   20.96891    1.41340   85.40730
     205      444        5     0.00000   22.29085    3.28173   85.78537
     206      444        5     0.00000   22.34611    4.99804   84.22400
     207      444        5     0.00000   19.75543    2.97616   81.91012
     208      444        5     0.00000   -6.33378   48.77277   82.35908
     209      444        5     0.00000   -6.01498   47.96766   84.49393
     210      444        2     0.00000   18.54906    0.48433   85.39003
     211      444        3     0.00000  -13.11952   49.61866   83.75868
     212      444        3     0.00000   -7.89258   48.41867   85.17373
     213      444        3     0.00000   -6.93971   48.96103   83.03980
     214      444        6     0.00000   -8.97523   50.01406   83.72869
     215      444        3     0.00000   -8.95220   49.27631   84.91471
     216      444        3     0.00000   -8.00905   49.84469   82.82531
     217      444        3     0.00000   -6.81182   48.38551   84.25763
     218      444        3     0.00000   14.00398    2.37158   81.67837
     219      444        6     0.00000   14.07062    1.45730   82.64173
     220      444        3     0.00000   12.97179    2.32772   80.66684
     221      444        3     0.00000   12.03069    1.40477   80.85497
     222      444        3     0.00000   12.08849    0.54049   81.77925
     223      444        3     0.00000   12.97722    0.55528   82.65991
     224      444        3     0.00000   11.73649    1.85726   86.57333
     225      444        3     0.00000   13.96970    0.59452   86.68511
     226      444        3     0.00000   12.75745    2.07359   85.63178
     227      444        6     0.00000   13.84974    1.44401   85.67450
     228      444        3     0.00000   13.01355    0.32207   87.60849
     229      444        3     0.00000   11.90858    1.02155   87.50124
     230      444        3     0.00000   17.76638    1.05728   86.15254
     231      444        3     0.00000   21.05591    4.15725   82.91165
     232      444        3     0.00000   20.99125    2.10013   84.78293
     233      444        3     0.00000   21.78270    3.22000   85.00832
     234      444        3     0.00000   21.81622    4.24959   84.07223
     235      444        6     0.00000   20.22977    2.00984   83.62145
     236      444        3     0.00000   20.26417    3.03585   82.68717
     237      444        1     0.00000   -6.96437   13.89431   84.22673
     238      444        1     0.00000   -7.47535   17.39017   83.37970
     239      444        2     0.00000   -7.87351   15.31980   82.91074
     240      444        3     0.00000   49.19691   12.96831   83.54602
     241      444        4     0.00000   48.81774   14.14023   83.20520
     242      444        3     0.00000   -7.87924   17.14990   80.40328
     243      444        4     0.00000   -7.69272   15.91982   80.39965
     244      444        2     0.00000   -5.46695   16.99528   83.16794
     245      444        2     0.00000   -5.25268   15.06214   84.30216
     246      444        5     0.00000   -5.89868   21.49670   85.93169
     247      444        5     0.00000   51.11751   12.39385   81.65565
     248      444        2     0.00000   50.24443   12.68668   84.11403
     249      444        5     0.00000   -3.44416   11.22295   81.80561
     250      444        5     0.00000   -5.31863    9.55457   86.51062
     251      444        5     0.00000   -5.35097   13.97336   86.76691
     252      444        5     0.00000   -4.24631   12.46118   83.35789
     253      444        5     0.00000   52.43261   10.83058   84.95743
     254      444        2     0.00000   -7.82388   17.86110   81.40754
     255      444        5     0.00000   -6.30361   19.23501   85.52726
     256      444        5     0.00000   -7.94123   20.13962   82.03100
     257      444        5     0.00000   -4.12547   12.78051   88.27284
     258      444        5     0.00000   52.08344   11.02501   79.93614
     259      444        5     0.00000   -4.22757   10.52494   88.12743
     260      444        5     0.00000   -4.69076   10.33421   80.27877
     261      444        2     0.00000   -7.74854   14.92794   85.87444
     262      444        5     0.00000   46.34612   17.07896   82.28547
     263      444        5     0.00000   -9.54179   18.69982   85.40730
     264      444        5     0.00000   47.09341   18.91002   85.78446
     265      444        5     0.00000   45.57934   18.09984   84.22309
     266      444        5     0.00000   48.62522   16.86723   81.91012
     267      444        5     0.00000   -7.45088   22.39723   82.35908
     268      444        5     0.00000   -6.91329   23.07628   84.49302
     269      444        2     0.00000   -7.52773   17.06873   85.39003
     270      444        3     0.00000   -4.79056   16.09733   83.75777
     271      444        3     0.00000   -6.36469   21.22427   85.17373
     272      444        3     0.00000   -7.31062   21.77887   83.03889
     273      444        6     0.00000   -7.20504   19.48911   83.72869
     274      444        3     0.00000   -6.57760   19.87786   84.91471
     275      444        3     0.00000   -7.54120   20.41104   82.82440
     276      444        3     0.00000   -6.87672   22.17732   84.25672
     277      444        3     0.00000   -6.88920   12.18875   81.67837
     278      444        6     0.00000   -6.13099   12.70302   82.64173
     279      444        3     0.00000   -6.33539   11.31633   80.66684
     280      444        3     0.00000   -5.06547   10.96276   80.85406
     281      444        3     0.00000   -4.34585   11.44489   81.77925
     282      444        3     0.00000   -4.80304   12.20711   82.65900
     283      444        3     0.00000   -5.31043   10.48210   86.57333
     284      444        3     0.00000   -5.33354   13.04736   86.68421
     285      444        3     0.00000   -6.00832   11.25812   85.63087
     286      444        6     0.00000   -6.00927   12.51881   85.67450
     287      444        3     0.00000   -4.61974   12.35603   87.60849
     288      444        3     0.00000   -4.67270   11.04892   87.50124
     289      444        3     0.00000   -7.63224   16.10394   86.15163
     290      444        3     0.00000   46.95234   17.40344   82.91074
     291      444        3     0.00000  -10.14801   18.37534   84.78202
     292      444        3     0.00000   47.40066   18.50136   85.00741
     293      444        3     0.00000   46.49221   18.01566   84.07223
     294      444        6     0.00000   -9.68876   17.76159   83.62054
     295      444        3     0.00000   48.31915   17.27793   82.68626
     296      444        1     0.00000   23.06925   39.28772   84.22673
     297      444        1     0.00000   20.29745   37.09695   83.37970
     298      444        2     0.00000   22.28958   37.78725   82.91074
     299      444        3     0.00000   25.24798   37.36633   83.54602
     300      444        4     0.00000   24.42234   36.45258   83.20611
     301      444        3     0.00000   20.70745   36.86740   80.40328
     302      444        4     0.00000   21.67978   37.64442   80.40055
     303      444        2     0.00000   19.63544   39.03416   83.16794
     304      444        2     0.00000   21.20193   40.18617   84.30216
     305      444        5     0.00000   15.95321   36.40918   85.93169
     306      444        5     0.00000   24.78508   39.31785   81.65565
     307      444        2     0.00000   24.96780   38.41478   84.11403
     308      444        5     0.00000   23.62277   43.67236   81.80561
     309      444        5     0.00000   26.00479   42.88253   86.51153
     310      444        5     0.00000   22.19406   40.64532   86.76691
     311      444        5     0.00000   22.95184   42.35808   83.35880
     312      444        5     0.00000   25.48169   41.23768   84.95743
     313      444        2     0.00000   20.06385   36.55974   81.40754
     314      444        5     0.00000   18.11383   37.18928   85.52726
     315      444        5     0.00000   18.14981   35.31894   82.03100
     316      444        5     0.00000   22.61435   42.30293   88.27375
     317      444        5     0.00000   25.48781   40.83825   79.93614
     318      444        5     0.00000   24.61943   43.34220   88.12743
     319      444        5     0.00000   25.01580   43.03718   80.27968
     320      444        2     0.00000   22.56651   38.09130   85.87444
     321      444        5     0.00000   23.11315   32.84296   82.28547
     322      444        5     0.00000   20.19657   34.65259   85.40730
     323      444        5     0.00000   21.15375   32.57354   85.78446
     324      444        5     0.00000   22.61248   31.66745   84.22309
     325      444        5     0.00000   22.15745   34.92252   81.91012
     326      444        5     0.00000   15.94941   34.61487   82.35817
     327      444        5     0.00000   15.09195   34.74086   84.49302
     328      444        2     0.00000   20.60177   37.21275   85.39003
     329      444        3     0.00000   20.07431   40.06883   83.75777
     330      444        3     0.00000   16.42158   36.14185   85.17373
     331      444        3     0.00000   16.41482   35.04546   83.03889
     332      444        6     0.00000   18.34509   36.28166   83.72869
     333      444        3     0.00000   17.69409   36.63062   84.91471
     334      444        3     0.00000   17.71473   35.52964   82.82440
     335      444        3     0.00000   15.85250   35.22249   84.25672
     336      444        3     0.00000   24.50931   40.20559   81.67837
     337      444        6     0.00000   23.68422   40.60506   82.64173
     338      444        3     0.00000   24.98733   41.12140   80.66684
     339      444        3     0.00000   24.65882   42.39841   80.85497
     340      444        3     0.00000   23.88174   42.78003   81.77925
     341      444        3     0.00000   23.45026   42.00299   82.65991
     342      444        3     0.00000   25.19740   42.42591   86.57333
     343      444        3     0.00000   22.98731   41.12338   86.68511
     344      444        3     0.00000   24.87429   41.43359   85.63178
     345      444        6     0.00000   23.78353   40.80247   85.67450
     346      444        3     0.00000   23.22882   42.08764   87.60849
     347      444        3     0.00000   24.38763   42.69477   87.50124
     348      444        3     0.00000   21.48989   37.60406   86.15163
     349      444        3     0.00000   22.52931   33.20519   82.91074
     350      444        3     0.00000   20.78042   34.29036   84.78202
     351      444        3     0.00000   21.35431   33.04446   85.00741
     352      444        3     0.00000   22.22920   32.50060   84.07132
     353      444        6     0.00000   21.08318   34.99444   83.62054
     354      444        3     0.00000   21.95482   34.45211   82.68626
     355      444        1     0.00000  -21.62733   39.28823   84.22673
     356      444        1     0.00000  -18.85532   37.09746   83.37970
     357      444        2     0.00000  -20.84725   37.78827   82.91074
     358      444        3     0.00000   35.10871   37.36684   83.54602
     359      444        4     0.00000   35.93325   36.45309   83.20520
     360      444        3     0.00000  -19.26541   36.86791   80.40328
     361      444        4     0.00000  -20.23723   37.64493   80.39965
     362      444        2     0.00000  -18.19324   39.03519   83.16794
     363      444        2     0.00000  -19.76039   40.18719   84.30216
     364      444        5     0.00000  -14.51063   36.41021   85.93169
     365      444        5     0.00000   35.57076   39.31836   81.65565
     366      444        2     0.00000   35.38821   38.41529   84.11403
     367      444        5     0.00000  -22.18139   43.67287   81.80561
     368      444        5     0.00000  -24.56316   42.88304   86.51062
     369      444        5     0.00000  -20.75278   40.64583   86.76691
     370      444        5     0.00000  -21.50997   42.35910   83.35789
     371      444        5     0.00000   34.87464   41.23819   84.95743
     372      444        2     0.00000  -18.62203   36.56076   81.40754
     373      444        5     0.00000  -16.67135   37.19030   85.52726
     374      444        5     0.00000  -16.70725   35.31996   82.03100
     375      444        5     0.00000  -21.17289   42.30395   88.27284
     376      444        5     0.00000   34.86839   40.83876   79.93614